64
Lattice="5.088765 0.0 0.0 0.0 9.739025 0.0 0.0 0.0 22.303587" Properties=species:S:1:pos:R:3:forces:R:3 job_name=Segregation-1sol-T2-Al-Al-32-d-0.00 top_level=Segregation-1sol solute=Al energy=-492.04695823 stress_kbar_3x3="_JSON [[-2.87710031, -0.00302684, 6.05091594], [-0.00302682, -15.91418776, 0.00876884], [6.05091596, 0.00876883, -15.21986623]]" pbc="T T T"
Ti       2.54452245       9.28288110       0.00005923       0.00022075      -0.00650858      -0.00022634
Ti       0.00018607       4.40782919       0.00002200      -0.00019137       0.00050455       0.00014663
Ti       1.26403684       1.90653017       0.59788330       0.00628154      -0.00158200       0.00232049
Ti       3.81058858       6.77571399       0.59279059       0.00476062      -0.00114951       0.01066021
Ti       2.68269149       4.10057620       1.38970519       0.00247871       0.00326635      -0.00228977
Ti       0.14372153       8.97424704       1.38865848      -0.00792606      -0.00038961       0.00575567
Ti       0.99102441       6.23260302       2.13149005       0.00878518      -0.00367181       0.00228894
Ti       3.53436874       1.35892254       2.13364932       0.00728899       0.01531278       0.00202653
Ti       0.18753843       3.49795551       2.75823068       0.00464489       0.01708784       0.00474421
Ti       2.73682524       8.37279684       2.75286369      -0.00067719       0.00345084       0.00385847
Ti       1.06252400       0.87660692       3.50448398       0.00913481       0.01090156      -0.00439613
Ti       3.61347886       5.74493081       3.49383463      -0.00038128       0.00644319       0.00599516
Ti       2.70278502       3.12004131       4.20169415      -0.00390592       0.00641184      -0.00492241
Ti       0.15824031       7.99490303       4.20006021       0.00316273       0.00325582      -0.00172659
Ti       3.53219385       0.44740726       4.84631031       0.00071744       0.00556576      -0.00820734
Ti       0.99151021       5.31116588       4.84078906      -0.00530825       0.00222413       0.01177852
Ti       2.68779664       7.51227882       5.55604099      -0.00376659       0.00731100      -0.01104667
Ti       0.13996347       2.64432275       5.58316054       0.00234614       0.00242544       0.00159017
Ti       3.54676007       4.89014143       6.31633660       0.00413149      -0.00950177      -0.00677627
Ti       1.01152267       0.00882965       6.33039326      -0.00787724       0.00472341       0.00267997
Ti       0.14391265       7.07481521       6.96441357       0.00014352       0.00244123       0.00609305
Ti       2.67123147       2.22100928       6.97779451      -0.00131164      -0.00454558       0.00294789
Ti       1.04672540       4.47481003       7.61419042      -0.00937215      -0.00634713       0.00718058
Ti       3.59224915       9.34373724       7.56405052      -0.00849868      -0.00946174      -0.00360683
Ti       0.13340884       1.86699012       8.42671533      -0.00409600      -0.01015966      -0.00898446
Ti       2.70616422       6.77065212       8.39982738      -0.00030505      -0.00864402      -0.00890188
Ti       0.84757914       8.85758030       9.01773688       0.01244504      -0.01256021       0.00692284
Ti       3.42028772       4.00828405       8.99777791       0.01173291      -0.00539713       0.00290133
Ti       2.73719131       1.12547227       9.75643179       0.00641986      -0.00725676      -0.00171549
Ti       0.15371213       6.01826436       9.77629324       0.01282434      -0.00160844       0.00082733
Ti       3.79475277       8.16350950      10.63031565       0.00297180       0.00560696      -0.00536518
Ti       1.26959389       3.29284017      10.64413103       0.00316127       0.00349719       0.00921956
Al       5.08874365       0.83457138      11.15161450       0.00072771      -0.01452410       0.00092322
Ti       2.54445149       5.69483673      11.15163002       0.00008300      -0.01454299      -0.00010283
Ti       3.81925123       3.29288981      11.65929547      -0.00309922       0.00346172      -0.00927619
Ti       1.29420256       8.16340695      11.67301931      -0.00355282       0.00684531       0.00561422
Ti       2.35162425       1.12548516      12.54698177      -0.00686428      -0.00732417       0.00106765
Ti       4.93512105       6.01837188      12.52711928      -0.01276308      -0.00176759      -0.00092220
Ti       1.66855385       4.00831593      13.30559236      -0.01190928      -0.00544692      -0.00309909
Ti       4.24126982       8.85751856      13.28562340      -0.01210025      -0.01241149      -0.00702815
Ti       4.95542572       1.86695195      13.87664789       0.00457280      -0.01021611       0.00881360
Ti       2.38275519       6.77060248      13.90351027       0.00025136      -0.00840397       0.00925394
Ti       1.49665946       9.34365739      14.73926667       0.00810601      -0.00932618       0.00394321
Ti       4.04217715       4.47476947      14.68920934       0.00931805      -0.00659296      -0.00727116
Ti       4.94501257       7.07471163      15.33899115      -0.00008534       0.00254650      -0.00655266
Ti       2.41770561       2.22096543      15.32544762       0.00075344      -0.00490430      -0.00220417
Ti       1.54213209       4.89007488      15.98704347      -0.00406910      -0.00985124       0.00665180
Ti       4.07734210       0.00862057      15.97296729       0.00803876       0.00538603      -0.00260157
Ti       2.40110714       7.51216906      16.74724307       0.00377011       0.00741653       0.01127760
Ti       4.94892720       2.64423953      16.72019192      -0.00245391       0.00190180      -0.00186768
Ti       4.09742654       5.31106980      17.46256984       0.00487388       0.00215833      -0.01145921
Ti       1.55670400       0.44727127      17.45703307      -0.00049907       0.00584970       0.00807862
Ti       4.93069323       7.99478510      18.10337049      -0.00348842       0.00327500       0.00168200
Ti       2.38611581       3.11991146      18.10169206       0.00366010       0.00636504       0.00496998
Ti       1.47541661       5.74488440      18.80951885       0.00053702       0.00628505      -0.00576659
Ti       4.02632360       0.87648788      18.79896415      -0.00893285       0.01104640       0.00420920
Ti       2.35215797       8.37248978      19.55045757       0.00094803       0.00378643      -0.00360989
Ti       4.90144219       3.49775588      19.54509137      -0.00413041       0.01667301      -0.00476787
Ti       1.55443243       1.35851700      20.16984657      -0.00724463       0.01531309      -0.00229753
Ti       4.09779847       6.23228997      20.17200195      -0.00870659      -0.00404772      -0.00250387
Ti       4.94486018       8.97364620      20.91455495       0.00766480      -0.00060085      -0.00604076
Ti       2.40591879       4.10001642      20.91343371      -0.00264793       0.00297295       0.00239806
Ti       3.82502880       1.90628947      21.70544652      -0.00608444      -0.00197850      -0.00247965
Ti       1.27846894       6.77541323      21.71054944      -0.00470802      -0.00098972      -0.01080425
