100
Lattice="4.4265 -2.555641 0.0 3.767997 6.526363 -0.031456 0.0 0.0 45.781652" Properties=species:S:1:pos:R:3:forces:R:3 job_name=Segregation-1sol-CSL13-V-V-50-d-0.00 top_level=Segregation-1sol solute=V energy=-775.41466886 stress_kbar_3x3="_JSON [[-37.77789515, -1.45514505, 0.65007594], [-1.45514505, -41.45837505, 1.11726431], [0.65007597, 1.11726433, -17.87289654]]" pbc="T T T"
Ti       2.46111814      -0.92541950       0.02018220      -0.00415909      -0.00135820       0.00146533
Ti       5.75359321       1.52461156       0.00447033       0.00050341      -0.00347882       0.00130855
Ti       4.97333178      -0.83231868       1.38742949      -0.00031231       0.00003579       0.00536484
Ti       4.57798284       3.74672098       1.37164085       0.00025431       0.00224537       0.00624033
Ti       7.08795596       3.83487399       2.63304552      -0.00084045      -0.00351554       0.00089085
Ti       3.79454864       1.38582502       2.64864840      -0.00372949      -0.00404309       0.00392763
Ti       1.64896057      -0.46872020       2.87854017       0.00113884      -0.00437661       0.00101576
Ti       2.12844819       3.60553964       2.86288366      -0.00454719      -0.00268977       0.00202756
Ti       4.71472063       3.62989642       4.16960188      -0.00076566      -0.00046174       0.00024327
Ti       4.80318313      -0.77239285       4.18470681      -0.00128863       0.00252848       0.00076443
Ti       3.43185862       5.84833972       5.25553217      -0.00318413      -0.00432148      -0.00439974
Ti       2.93857122       1.78173638       5.27141089      -0.00299278      -0.00322371      -0.00530958
Ti       2.39277142      -0.97600022       5.75953669      -0.00320320      -0.00127893      -0.00837035
Ti       5.74261701       1.44079695       5.74322851      -0.00027574      -0.00421638      -0.00660613
Ti       4.26563886       3.74445785       6.96018900       0.00077406      -0.00238339      -0.00288880
Ti       5.12447006      -1.10249883       6.97592613       0.00254654      -0.00129556      -0.00635254
Ti       6.91419830       3.57457665       7.85133986      -0.00395498      -0.00339585      -0.00514740
Ti       3.65361426       1.10648763       7.86725775      -0.00007326       0.00133464      -0.00454233
Ti       6.36004623       0.87365115       8.61541326      -0.00109936      -0.00023125      -0.00494184
Ti       1.59148396      -0.72417059       8.63117949      -0.00186419      -0.00386565      -0.00288511
Ti       4.78314218       3.16286958       9.68735807      -0.00047411       0.00028503       0.00586181
Ti       4.36146631      -0.94427668       9.70197610      -0.00022126      -0.00145593       0.00233310
Ti       3.16134148       5.39517696      10.47747821      -0.00013858      -0.00132515       0.00380341
Ti       2.67839527       1.32212595      10.49297731       0.00283188       0.00164149       0.00563951
Ti       5.88458279       5.18630092      11.45042296       0.00034961      -0.00049352       0.00534747
Ti       5.56333686       1.02049539      11.46543394       0.00281992       0.00244871       0.00466992
Ti       0.58053547       0.89927571      12.36552001      -0.00167883      -0.00144722       0.00786496
Ti       3.84440895       3.36709551      12.35431440       0.00086524       0.00374005      -0.00382210
Ti       3.28359694       0.65220099      13.18528373      -0.00029626      -0.00203471      -0.00659862
Ti       6.70324910       3.02862621      13.16850245       0.00547538       0.00336250      -0.00149784
Ti       5.08906420       5.36378158      14.30515472       0.00206841       0.00239405       0.00177883
Ti       6.11527242       0.41824738      14.31871573      -0.00061122       0.00590893       0.00301086
Ti       4.53625200       2.63710938      14.95967231       0.00169490       0.00630374      -0.00872656
Ti       4.03242541      -1.42252767      14.96875244      -0.00214123       0.00232930      -0.00478814
Ti       7.14691883       2.54020610      15.92106955       0.00158725       0.00335119      -0.00886720
Ti       2.64429832       0.78648739      15.94008260       0.00021891      -0.01043368      -0.01022521
Ti       5.76931560       4.82464595      17.19319982       0.00429005       0.00501229      -0.00470640
Ti       5.31435249       0.73299677      17.20103787       0.00680486       0.00713446      -0.00833799
Ti       3.63361762       2.97316476      17.55750224       0.00306028       0.00699556       0.00002894
Ti       0.34852525       0.51448964      17.56571669       0.00030687       0.00260341      -0.00645508
Ti       2.88139575       0.56180241      18.74296885      -0.00404102      -0.00438344       0.00689679
Ti       6.83957367       2.64258896      18.72219602      -0.00587976       0.00061108      -0.00220802
Ti       4.94971324       5.25970268      20.10424907       0.00712607       0.00168425       0.00370670
Ti       1.66025658       2.79533926      20.05574116      -0.00047119       0.00266546       0.00829655
Ti       4.40936073       2.47298641      20.18638074       0.00572990       0.00597695       0.00711480
Ti       3.93758903      -1.60332204      20.21315593      -0.00187689      -0.00155091       0.01443873
Ti       6.88264495       2.59470058      21.49337921       0.00695423       0.00578628      -0.01294534
Ti       2.80051659       0.58410891      21.53674615       0.00229618       0.00226764      -0.00448518
Ti       3.73860438       3.00568383      22.86769162      -0.00159868      -0.00040551      -0.00171751
Ti       0.31181064       0.43747231      22.88619619       0.00708761       0.00809399       0.00071239
V        5.79015782       4.82308631      22.86636983      -0.00757535       0.00622921      -0.00004224
Ti       5.34352974       0.66802834      22.88378227      -0.00181164      -0.01048542      -0.00097756
Ti       2.79743181       0.58950297      24.23125049       0.00271171       0.00057543       0.00350532
Ti       6.88991505       2.59639842      24.24232166       0.00793097       0.00673073       0.01155080
Ti       3.94130319      -1.59208284      25.55449125      -0.00216007      -0.00102045      -0.01245161
Ti       4.41628416       2.48349914      25.54521168       0.00447353       0.00688532      -0.00593113
Ti       1.66635237       2.80604532      25.71193614      -0.00016109       0.00167955      -0.00902380
Ti       4.95539891       5.27204614      25.62751929       0.00625590       0.00243652      -0.00194835
Ti       2.90327188       0.57302109      27.02977268      -0.00916116      -0.00953811      -0.00881687
Ti       6.83603284       2.66650855      27.01940507      -0.00247412       0.00448934      -0.00058659
Ti       0.36572452       0.54085222      28.18875524       0.00206379       0.00119261       0.00346879
Ti       3.64902334       3.00313087      28.16179911       0.00465599       0.00591702      -0.00017939
Ti       5.33913048       0.75429709      28.56830192       0.00414294       0.00515929       0.00865377
Ti       5.77745763       4.85635046      28.54408108       0.00283151       0.00420746       0.00051477
Ti       7.19324564       2.56270391      29.81885345      -0.00104697       0.00201289       0.00637094
Ti       2.64165436       0.83612144      29.83127296      -0.00023588      -0.00809476       0.00714154
Ti       4.56779047       2.69405532      30.75127223       0.00174692       0.00253814       0.00800837
Ti       4.06557052      -1.36717313      30.77513945      -0.00028121       0.00060760       0.00352163
Ti       6.13217246       0.47499908      31.45066252      -0.00223869       0.00388883      -0.00248712
Ti       5.13025628       5.40626427      31.43277067      -0.00041315       0.00162235      -0.00078099
Ti       3.34020408       0.70062410      32.57007208       0.00053544      -0.00168840       0.00638200
Ti       6.71712733       3.10115880      32.55504033       0.00402677       0.00119341       0.00154919
Ti       3.89218880       3.43601432      33.35820942       0.00054143       0.00172884       0.00400726
Ti       0.61706745       0.97517041      33.37893131      -0.00333609      -0.00110888      -0.00619685
Ti       5.92023463       5.25810626      34.29718078       0.00132501      -0.00237334      -0.00145089
Ti       5.60824645       1.08724164      34.31385830       0.00167594       0.00079372      -0.00221223
Ti       3.21334573       5.46651309      35.22251162      -0.00099993      -0.00204027      -0.00182967
Ti       2.71490104       1.40234244      35.23876963       0.00155674       0.00176906      -0.00452081
Ti       4.79677328       3.24905543      36.03645615      -0.00146658       0.00002382      -0.00351600
Ti       4.42982328      -0.88988109      36.05321174      -0.00092297      -0.00262560      -0.00074376
Ti       6.39989207       0.92834645      37.17551156      -0.00102399       0.00068409       0.00469240
Ti       1.61943231      -0.66273081      37.19102325      -0.00176028      -0.00424425       0.00349502
Ti       6.96143979       3.64737868      37.82209670      -0.00411690      -0.00450530       0.00427716
Ti       3.69347528       1.18324533      37.83768463       0.00026876       0.00082507       0.00454734
Ti       4.35001401       3.75797235      38.78343658       0.00218631      -0.00180659       0.00193839
Ti       5.09486614      -1.02287379      38.79904640       0.00133938      -0.00071708       0.00473376
Ti       5.74193022       1.47121951      40.06199286      -0.00035015      -0.00411160       0.00552626
Ti       2.41970378      -0.96156302      40.07717042      -0.00406944      -0.00179316       0.00710906
Ti       3.44657196       5.88226044      40.41553535      -0.00377465      -0.00523621       0.00193715
Ti       2.96089331       1.81147203      40.43108233      -0.00250598      -0.00382237       0.00365000
Ti       4.67639968       3.66475327      41.58874697      -0.00097939       0.00092441      -0.00165770
Ti       4.85268345      -0.78818190      41.60469990       0.00033033       0.00332516      -0.00062844
Ti       2.13007294       3.60683960      42.93046743      -0.00449775      -0.00283012      -0.00126271
Ti       1.64932627      -0.46657558      42.94622030       0.00078166      -0.00520592      -0.00022884
Ti       7.09205101       3.83700888      43.05640072      -0.00069403      -0.00386922      -0.00026508
Ti       3.79431186       1.39024511      43.07225947      -0.00346648      -0.00331463      -0.00333019
Ti       4.59957600       3.73425852      44.37651163       0.00000424       0.00057659      -0.00317783
Ti       4.95169771      -0.81981478      44.39208948      -0.00093137      -0.00099916      -0.00179319
Ti       3.46813479       5.94014366      45.74055843      -0.00359581      -0.00054750       0.00098357
Ti       3.00135740       1.85883074      45.75632558      -0.00039943      -0.00511271       0.00054704
