100
Lattice="4.4265 -2.555641 0.0 3.767997 6.526363 -0.031456 0.0 0.0 45.781652" Properties=species:S:1:pos:R:3:forces:R:3 job_name=Segregation-1sol-CSL13-V-V-59-d-4.19 top_level=Segregation-1sol solute=V energy=-775.56365909 stress_kbar_3x3="_JSON [[-36.86473273, -2.62820555, 0.05493874], [-2.62820552, -40.53245052, 0.74073033], [0.05493877, 0.74073032, -18.00490753]]" pbc="T T T"
Ti       2.47238068      -0.90683923       0.00301966      -0.00181836      -0.00097886       0.00612698
Ti       5.76421649       1.54432638      -0.01244545      -0.00151075      -0.00112254       0.00678647
Ti       4.98117911      -0.81197076       1.37844648      -0.00456395      -0.00081409       0.00324675
Ti       4.59165523       3.76370747       1.36238532       0.00055220      -0.00441686       0.00394050
Ti       7.09962836       3.85266391       2.63218733      -0.00157783      -0.00084047       0.00527866
Ti       3.80403431       1.40459092       2.64791394       0.00006059      -0.00278709       0.00615051
Ti       1.65900268      -0.45153720       2.86488646      -0.00171028      -0.00190508       0.00333061
Ti       2.13850341       3.62304323       2.84943889      -0.00141401      -0.00395946       0.00307442
Ti       4.71673789       3.65197910       4.16020967       0.00005018      -0.00450568       0.00171889
Ti       4.82176435      -0.75961150       4.17604325      -0.00359935      -0.00208882       0.00176912
Ti       3.44314701       5.86966386       5.26410268      -0.00031270      -0.00444392      -0.00024290
Ti       2.95306789       1.80207335       5.27988921      -0.00388550      -0.00343725      -0.00027458
Ti       2.40825055      -0.96063182       5.74949390      -0.00214048      -0.00479122      -0.00548953
Ti       5.74970206       1.46128988       5.73393805      -0.00226974      -0.00513865      -0.00571097
Ti       4.28947045       3.75683917       6.95751376      -0.00353580      -0.00484056      -0.00514402
Ti       5.12705466      -1.07801826       6.97291248      -0.00249867      -0.00338651      -0.00314954
Ti       6.93000636       3.59749251       7.86572107      -0.00542333      -0.00183861      -0.00107642
Ti       3.66925973       1.12949310       7.88134097      -0.00184503      -0.00415580      -0.00075016
Ti       6.37765539       0.88768573       8.61070746      -0.00209890      -0.00420620      -0.00875132
Ti       1.59821164      -0.70407641       8.62624510      -0.00343555      -0.00209040      -0.00651260
Ti       4.78803996       3.18239326       9.69371274      -0.00489576       0.00296428      -0.00498321
Ti       4.37913809      -0.93286246       9.70896563       0.00630061      -0.00161417      -0.00418431
Ti       3.17721993       5.40867205      10.49161301       0.00236658       0.00025951      -0.00243908
Ti       2.68576785       1.34099937      10.50746278       0.00407148       0.00040727      -0.00461913
Ti       5.89399703       5.19603336      11.44054975      -0.00028479       0.00324223      -0.00609973
Ti       5.57024143       1.03261999      11.45631859       0.00125027       0.00206137      -0.00735301
Ti       0.58576766       0.91326120      12.38586319       0.00354312       0.00264729      -0.00312152
Ti       3.85540398       3.37500032      12.37124709       0.00125696       0.00843855      -0.00753805
Ti       3.30371393       0.64810980      13.19374555       0.00202372       0.00599668      -0.00426470
Ti       6.69420509       3.04129049      13.17766581       0.00355873       0.00620746      -0.00376045
Ti       5.09006745       5.35741902      14.28414394       0.01115108       0.00425238       0.00162466
Ti       6.11017139       0.41759462      14.30052232       0.00549746       0.00538645       0.00011125
Ti       4.54080236       2.64067152      14.98634881       0.00430429       0.00529871      -0.00062033
Ti       4.03216320      -1.41788544      15.00161137       0.01079092       0.00449929      -0.00012786
Ti       7.16885229       2.51017328      15.91884594       0.00217641       0.00776331       0.00414333
Ti       2.60831259       0.79066031      15.93495371       0.00990992       0.00581544      -0.00162504
Ti       5.74510720       4.80448192      17.15777849       0.00771024       0.00369973       0.00453267
Ti       5.31216386       0.70603235      17.17289850       0.00669393       0.00855303       0.00797104
Ti       3.62334422       2.95340810      17.58749786       0.00447927       0.00642461      -0.00165752
Ti       0.34429165       0.49844485      17.60179057       0.00220901       0.00192414      -0.00114738
Ti       2.89896050       0.52079101      18.73120107       0.00106803       0.00545480      -0.00032040
Ti       6.80059073       2.62169470      18.71534492       0.00492656      -0.00326023      -0.00093797
Ti       4.95156988       5.22302287      20.02406001      -0.00292615       0.00314306      -0.00352048
Ti       1.65630514       2.76900140      20.03871423       0.00515854       0.00571503      -0.00592251
Ti       4.41182869       2.44167130      20.22207617       0.00844582       0.00028401      -0.00452417
Ti       3.94565819      -1.63976673      20.24306194      -0.00633494       0.00392624      -0.00811822
Ti       6.92768520       2.53474388      21.50470880       0.00844321       0.00358700      -0.00198293
Ti       2.78204383       0.58360821      21.52304670      -0.00901581       0.00212769      -0.00151202
Ti       3.63750654       2.89819802      22.90825826      -0.00366134       0.00607569       0.00320926
Ti       0.31919779       0.45821328      22.92953993      -0.00859027      -0.00203164       0.00608088
Ti       5.76092606       4.76298662      22.86671539      -0.00548791       0.00037904      -0.01102936
Ti       5.29942881       0.67867143      22.89500137      -0.00262867       0.00681435      -0.01395490
Ti       2.80744141       0.58557960      24.28210070      -0.00064594       0.00662817      -0.00374501
Ti       6.92989948       2.55761244      24.26970726       0.00123134       0.00450857       0.00605796
Ti       3.94152713      -1.63206082      25.63298969      -0.00294340      -0.00765125       0.00007963
Ti       4.48493027       2.45575383      25.61591404       0.00385056       0.00593644       0.00338234
Ti       1.70824175       2.80760949      25.73788712      -0.00342368       0.00858292      -0.00440088
Ti       4.93715695       5.23627510      25.70852110       0.00475343      -0.00761418       0.00149118
Ti       2.89871040       0.57413220      27.04667040       0.00239478       0.00932951      -0.00102367
V        6.88172043       2.62304352      26.99588003       0.00054934       0.00024229       0.01074427
Ti       0.36125769       0.46866886      28.21372741      -0.00974884       0.00270837      -0.00172984
Ti       3.64431711       3.03736231      28.17725174       0.00730204       0.00285989       0.00519155
Ti       5.33792954       0.78617072      28.49467858       0.01092026       0.00189025       0.00779118
Ti       5.83250811       4.77903338      28.47274706      -0.00465020       0.00238012       0.00497075
Ti       7.13459716       2.58205133      29.80333482      -0.00566491       0.00621916      -0.01201045
Ti       2.65697637       0.80878375      29.81663302       0.00242128       0.01166020       0.00578973
Ti       4.52728079       2.67172545      30.78797453       0.00290520       0.00213843       0.01296210
Ti       4.03459687      -1.39305824      30.79103755       0.00593762       0.00961928      -0.00886563
Ti       6.11681444       0.45681767      31.40766561       0.00880202       0.00390218       0.01320243
Ti       5.09842996       5.39416777      31.37833933      -0.00156800       0.00023689       0.00360757
Ti       3.28914044       0.69613159      32.55917606       0.00448077      -0.00405871       0.00792931
Ti       6.70624530       3.07228986      32.55164741       0.00501937       0.00724865      -0.00158002
Ti       3.85479878       3.42110348      33.37362985       0.00676409       0.00992298       0.00901238
Ti       0.59225351       0.95480019      33.39307785      -0.00655378      -0.00611031      -0.00646027
Ti       5.89718177       5.25054076      34.26246295       0.00254994      -0.00423019       0.00401609
Ti       5.57556768       1.07941307      34.27686216      -0.00112141      -0.00764462       0.00245028
Ti       3.18413914       5.46351016      35.23197343      -0.00083704      -0.00659285       0.00314532
Ti       2.69313818       1.39280896      35.24422150      -0.00838076       0.00105623       0.00038683
Ti       4.79748422       3.24240227      36.03689465      -0.00016138      -0.00222410       0.00050449
Ti       4.38896349      -0.87284399      36.05512624       0.01001960      -0.01401166      -0.00625383
Ti       6.38699217       0.94932725      37.14998501      -0.00328312      -0.01130856      -0.00373557
Ti       1.61572462      -0.64607452      37.16871632      -0.00453887      -0.01444422      -0.00333681
Ti       6.94790148       3.65668344      37.84035813       0.00107419      -0.01263339      -0.00547435
Ti       3.68210284       1.19978176      37.85094386      -0.00326899      -0.01315470      -0.00351683
Ti       4.32626054       3.79500339      38.77147574      -0.00756057      -0.00395906       0.00031441
Ti       5.11087691      -1.00730480      38.78878065      -0.00010491      -0.01510770      -0.00512131
Ti       5.75592201       1.49402149      40.04193154      -0.00676602      -0.00523469      -0.00050514
Ti       2.42017876      -0.92957046      40.05552297      -0.00360251      -0.00620228      -0.00396798
Ti       3.45385656       5.90845409      40.42698330      -0.00576582      -0.00604322       0.00006940
Ti       2.96451977       1.83454998      40.44149372      -0.00369594      -0.00229768       0.00127911
Ti       4.69636016       3.68596624      41.57152644      -0.00199397      -0.00549058       0.00312890
Ti       4.85314792      -0.75566919      41.59257915      -0.00711248      -0.00479434      -0.00310352
Ti       2.14254857       3.62973339      42.91167005      -0.00533829       0.00140225       0.00536532
Ti       1.66010873      -0.44332114      42.92976148      -0.00048535      -0.00095712      -0.00088733
Ti       7.10152911       3.85997214      43.05562900      -0.00093614       0.00229682       0.00949426
Ti       3.80665099       1.41379798      43.07048978      -0.00280634       0.00143166       0.00474526
Ti       4.60811449       3.75756334      44.36511501      -0.00277915       0.00092154       0.00585607
Ti       4.96654510      -0.80046645      44.38181334      -0.00265195       0.00299848       0.00348889
Ti       3.47971068       5.95945548      45.73545313      -0.00145608       0.00125801       0.00748565
Ti       3.01242108       1.87853785      45.75153413      -0.00166328      -0.00030840       0.00514612
