64
Lattice="5.872 0.0 0.0 0.0 6.890708 0.0 0.0 0.0 27.394398" Properties=species:S:1:pos:R:3:forces:R:3 job_name=Segregation-1sol-T1g-V-V-43-d-4.72 top_level=Segregation-1sol solute=V energy=-495.94282087 stress_kbar_3x3="_JSON [[-13.72721861, 0.00061986, -0.00180685], [0.00061987, -13.55441938, -2.92782318], [-0.00180686, -2.92782318, -23.91250465]]" pbc="T T T"
Ti       4.40620792       5.10374354       0.09292328      -0.00030461      -0.00523149      -0.01088782
Ti       1.46587547       5.10376859       0.09292072       0.00010178      -0.00517035      -0.01072257
Ti       0.00011939       3.00257665       1.25957886      -0.00003353      -0.00055108      -0.00284673
Ti       2.93601471       3.00226807       1.26320271       0.00007233      -0.00292214      -0.00457058
Ti       0.00001917       6.75202542       1.88375672       0.00018752      -0.00170816      -0.00116328
Ti       2.93601570       6.75122826       1.87891618      -0.00004850      -0.00311231       0.00211136
Ti       4.40878318       1.82145263       3.31772255      -0.00142812      -0.01733749       0.00021211
Ti       1.46334833       1.82145032       3.31775511       0.00108743      -0.01710395       0.00002665
Ti       1.46699501       4.65512502       3.28289491       0.00098047      -0.00885141       0.00423929
Ti       4.40497505       4.65511217       3.28292284      -0.00093201      -0.00882778       0.00418086
Ti       5.87197578       6.74039185       4.71710569       0.00009673       0.00360066      -0.00309398
Ti       2.93601529       6.74005399       4.71247746      -0.00003876       0.00751581       0.00268333
Ti       2.93597590       3.06013099       5.33373928       0.00021441       0.00461482       0.00425394
Ti       0.00009293       3.06312090       5.33825511      -0.00025453       0.00580673       0.00298590
Ti       4.40187564       5.14789192       6.52688631       0.00395383       0.00651788       0.01280681
Ti       1.47013899       5.14795061       6.52686229      -0.00391627       0.00641511       0.01276602
Ti       4.40354503       1.07560270       6.92052128       0.00241387       0.00542136      -0.00530460
Ti       1.46845706       1.07561411       6.92049858      -0.00233224       0.00540155      -0.00516084
Ti       2.93596078       3.23081955       8.15462415       0.00004562       0.01271448      -0.00167930
Ti       0.00002279       3.23384641       8.15653651       0.00001320       0.01035799      -0.00283810
Ti       2.93599828       6.19213640       8.75628573       0.00003940       0.00971423       0.00216318
Ti       0.00000698       6.19246408       8.76069152      -0.00014329       0.01028024       0.00567991
Ti       4.40685814       1.45898017       9.92083373       0.00001886       0.01135925      -0.00096484
Ti       1.46514628       1.45897231       9.92079533       0.00007044       0.01151571      -0.00100934
Ti       4.40561187       4.28536117      10.42634619       0.00252562       0.00685969       0.00140567
Ti       1.46639131       4.28533116      10.42638834      -0.00241606       0.00691846       0.00141229
Ti       2.93599381       6.45334879      11.59418876       0.00007699       0.00674551       0.00239193
Ti       0.00004536       6.45534926      11.60269572      -0.00009886       0.00868893       0.00351509
Ti       2.93594240       2.49294238      12.18465813       0.00023120      -0.00091782       0.00144451
Ti       0.00007244       2.49450153      12.20905281      -0.00014107       0.00027985      -0.00267976
Ti       1.47412857       4.66210872      13.38790121       0.00292578       0.00174092      -0.00085202
Ti       4.39788474       4.66209321      13.38788950      -0.00300078       0.00167485      -0.00072243
Ti       4.40484579       0.60990675      13.86502429      -0.00765949       0.00207158      -0.00340865
Ti       1.46719480       0.60983450      13.86500255       0.00763697       0.00210262      -0.00297950
Ti       0.00003676       2.72236926      15.05483402      -0.00015003       0.00361581       0.00090493
Ti       2.93597050       2.73442128      15.01866661       0.00009125       0.00691887       0.00761587
Ti       0.00001784       5.80996326      15.59370307       0.00016251      -0.00365966      -0.00563901
Ti       2.93597315       5.79520744      15.64199836      -0.00008014      -0.01003097       0.00301265
Ti       4.34516636       3.91235252      17.14617645       0.00122373      -0.00716347       0.00697617
Ti       1.52685563       3.91231020      17.14614111      -0.00116066      -0.00723525       0.00723086
Ti       4.39055998       1.01483759      16.98703729       0.00138283       0.00002095      -0.00166872
Ti       1.48133405       1.01486964      16.98706690      -0.00118931       0.00025991      -0.00192329
Ti       0.00010484       5.87761176      18.38974335       0.00003635       0.00233283      -0.01046409
V        2.93581131       5.89897005      18.43442833       0.00009238      -0.00646862      -0.00950659
Ti       2.93604498       2.53617371      19.05226489      -0.00004355      -0.01749445      -0.00746238
Ti       5.87198207       2.54039559      19.01146586      -0.00002526      -0.00884415      -0.00997021
Ti       4.38345002       0.47217800      20.18075773       0.00544296       0.00634559       0.00480054
Ti       1.48853037       0.47225906      20.18075505      -0.00541815       0.00610582       0.00480944
Ti       1.48526922       4.55586052      20.51848962      -0.00437323      -0.00607601      -0.00845075
Ti       4.38677319       4.55582237      20.51847199       0.00414776      -0.00595961      -0.00836558
Ti       2.93604803       2.41228252      21.81883507      -0.00011585      -0.00668172       0.00278707
Ti       5.87198796       2.42480074      21.79486406       0.00004910      -0.00834050      -0.00496252
Ti       2.93598903       6.33100772      22.41582319       0.00001696      -0.00581818      -0.00064076
Ti       0.00002064       6.33405083      22.38997166      -0.00002899       0.00048558       0.00121518
Ti       4.40780231       4.19330713      23.55916234      -0.00171481      -0.00347891       0.00813279
Ti       1.46416775       4.19332563      23.55916679       0.00193900      -0.00355179       0.00801011
Ti       4.40720146       1.37477864      24.06930610       0.00003004       0.00273475       0.00260104
Ti       1.46487799       1.37479914      24.06929448      -0.00026685       0.00281970       0.00260543
Ti       2.93601728       6.11269192      25.24124195       0.00009198       0.00518506      -0.00481899
Ti       0.00005051       6.11359196      25.22425660      -0.00002644       0.00064481       0.00045362
Ti       0.00002630       3.18133755      25.83895114      -0.00010262      -0.01013975       0.00025749
Ti       2.93598273       3.17753618      25.83982595       0.00006580      -0.00836660      -0.00294788
Ti       1.46651437       1.02460741      27.04684517      -0.00274119       0.00262731       0.00597232
Ti       4.40554438       1.02462564      27.04686579       0.00272009       0.00262844       0.00604075
