52
Lattice="4.6568 0.0 0.0 0.0 7.770572 0.0 0.0 0.0 25.044546" Properties=species:S:1:pos:R:3:forces:R:3 job_name=Segregation-1sol-CSL7-Al-Al-39-d-6.91 top_level=Segregation-1sol solute=Al energy=-397.62710343 stress_kbar_3x3="_JSON [[-15.54587162, -0.17378772, 0.1388383], [-0.17378772, -24.18756453, 0.35400578], [0.13883827, 0.35400579, -21.44570669]]" pbc="T T T"
Ti       1.81647618       7.38905307       0.69586154       0.00252837      -0.00420024      -0.00770504
Ti       4.62826422       5.58662122       1.35397059       0.00911381       0.00497417      -0.01008904
Ti       2.46124321       2.27677597       1.60904657      -0.00063551       0.00087256      -0.00386098
Ti       4.56347266       0.61714887       2.07194642      -0.00572835       0.00094256       0.00045351
Ti       2.35490163       5.00509155       2.80875808       0.00153097      -0.00020828       0.00351298
Ti       0.02595795       3.33147211       3.01309197      -0.00311309      -0.00647929      -0.00200634
Ti       2.31011546       0.01173524       3.64654007       0.00254348       0.00204083      -0.00476426
Ti       0.02846426       6.10282467       4.07733538       0.00042349       0.00093351       0.00655497
Ti       2.34102655       2.76433651       4.59603345       0.00159563       0.00060891      -0.00043382
Ti       0.00298468       1.11622135       4.99178610       0.00494581      -0.00098466      -0.00303203
Ti       2.34239812       5.56729241       5.60739530       0.00281791       0.00169135       0.00458528
Ti       0.00640897       3.87366905       5.94638349       0.00402464       0.00251184      -0.00522423
Ti       2.33452221       0.56673488       6.57640368       0.00359481      -0.00145907       0.00322853
Ti       0.01394852       6.64275748       6.90853316       0.00379276       0.00009053      -0.00021713
Ti       2.33099184       3.32383492       7.53028479       0.00338458      -0.00067811       0.00048506
Ti       0.01178252       1.67690517       7.92620985       0.00337979       0.00026805       0.00323266
Ti       2.35704723       6.10561646       8.44000594       0.00034980      -0.00261737      -0.00871858
Ti       4.63742021       4.43124525       8.87686012       0.00039856      -0.00513794       0.00618845
Ti       2.35267580       1.10325083       9.51151305      -0.00158465      -0.00008596       0.00578976
Ti       0.02570673       7.20757207       9.70528590       0.00410464      -0.00523832      -0.00830636
Ti       2.23771932       3.81252551      10.44736800      -0.00265233      -0.01056194       0.00471090
Ti       0.13239493       2.16251948      10.92192761       0.00503490      -0.00683175       0.00849089
Ti       2.29605954       6.60899829      11.16281741       0.00312040      -0.01780496       0.00435095
Ti       4.14419788       4.82233496      11.81557313       0.00120958      -0.01382981       0.00235705
Ti       2.70598619       1.61745357      12.52935605       0.00225717      -0.00333893       0.00337648
Ti       0.38584862       7.63448390      12.54613760      -0.00582793      -0.00864328       0.00583093
Ti       1.26046376       4.80734370      13.21796290       0.00303879      -0.00668008       0.00080858
Ti       3.11172646       6.58903863      13.92309231      -0.00113967      -0.01221738       0.00030751
Ti       0.62150404       2.15112261      14.13986557       0.00029495      -0.01425482       0.00676795
Ti       3.16744209       3.79029041      14.57420881      -0.00253531      -0.00368794       0.00769324
Ti       0.71906783       7.20837775      15.39260153      -0.00299048      -0.00700686      -0.00036670
Ti       3.04821732       1.09297636      15.56055757       0.00345710      -0.01814258      -0.00709946
Ti       0.78102115       4.42394931      16.10378353       0.00270434       0.00932086       0.00606371
Ti       3.05352028       6.06410386      16.64165451      -0.00340836       0.00860695       0.00632003
Ti       0.73722566       1.68778880      17.14880152      -0.00149730       0.00056477       0.00284911
Ti       3.06770780       3.33722500      17.51099290      -0.00340220       0.00785124      -0.00120113
Ti       0.73299023       6.63590323      18.17198774      -0.00806806       0.00558361      -0.00144326
Ti       3.07805972       0.55847183      18.49961423      -0.00470824       0.00508714      -0.00935110
Ti       0.73973743       3.96052628      19.10105376      -0.00404934       0.01094193       0.00602289
Al       3.06673659       5.56235564      19.41645230      -0.00493460       0.00603143      -0.00457153
Ti       0.75513195       1.19757320      20.07170430      -0.00696294       0.01792508      -0.00334824
Ti       3.06889229       2.81502758      20.45749426      -0.00106458       0.00657515      -0.00191442
Ti       0.73410607       6.13668033      20.90299015      -0.00228700      -0.00187511      -0.00519920
Ti       3.12417461       0.01049758      21.34684948      -0.00903511       0.00814676       0.00342167
Ti       0.70015116       3.33437148      22.11109276      -0.00093366       0.00698845      -0.00899024
Ti       3.05775792       5.01396711      22.17873143       0.00476828      -0.00274049       0.00543806
Ti       0.84857360       0.60382812      22.92794787       0.00611666       0.01535247      -0.00444182
Ti       2.93697707       2.24797921      23.43631949      -0.00345878       0.00932656      -0.00739402
Ti       0.78446188       5.62394164      23.65869588      -0.00271981      -0.00435499       0.00006734
Ti       3.58618355       7.37586426      24.31355189      -0.00200423       0.01076570       0.00572972
Ti       0.37533184       2.78558132       0.00175430       0.00576184       0.00314064       0.00259499
Ti       2.71571322       4.55738263      25.00689005      -0.00155152       0.01191711      -0.00755426
