64
Lattice="5.872 0.0 0.0 0.0 6.890708 0.0 0.0 0.0 27.394398" Properties=species:S:1:pos:R:3:forces:R:3 job_name=Segregation-1sol-T1g-Al-Al-42-d-4.72 top_level=Segregation-1sol solute=Al energy=-492.04135015 stress_kbar_3x3="_JSON [[-10.2558693, 0.00091528, 0.00123026], [0.0009153, -13.41173941, -2.50313992], [0.00123025, -2.50313994, -16.48366263]]" pbc="T T T"
Ti       4.38449209       5.23927280      27.37713242       0.00782188      -0.00219960       0.00115912
Ti       1.48749917       5.23945182      27.37712592      -0.00763847      -0.00245000       0.00112960
Ti       0.00020830       3.22376718       1.28093213      -0.00023966      -0.00504959       0.00198429
Ti       2.93568095       3.21375702       1.29238199       0.00023907       0.00449491      -0.00600604
Ti      -0.00022231       6.63060583       1.89761522      -0.00006954       0.00545483       0.00399547
Ti       2.93626656       6.64160368       1.91258329      -0.00024668      -0.00065471      -0.00153310
Ti       4.41886324       1.77611542       3.18215388      -0.00790123       0.00739798      -0.00335953
Ti       1.45324684       1.77596063       3.18217849       0.00793238       0.00758752      -0.00352874
Ti       1.46523386       4.60365033       3.41648666       0.00171881       0.00525937       0.00024066
Ti       4.40675605       4.60369056       3.41650590      -0.00155738       0.00513258      -0.00009075
Ti       0.00001342       6.73646184       4.71882777      -0.00001793       0.01265154      -0.00328790
Ti       2.93615626       6.73520367       4.72477152      -0.00001648       0.01265790       0.00076863
Ti       2.93600415       2.87954412       5.32602522       0.00015629       0.00539231       0.00024691
Ti       0.00016500       2.87966559       5.33146625      -0.00017269       0.00098590      -0.00830529
Ti       4.40155437       5.01546622       6.48821866       0.00189129       0.00749704      -0.00665331
Ti       1.47069702       5.01548988       6.48824348      -0.00184851       0.00748462      -0.00686203
Ti       4.40309244       0.94538338       6.96826746       0.00233417       0.00564743      -0.00262702
Ti       1.46918666       0.94534580       6.96822315      -0.00267622       0.00578409      -0.00243232
Ti       2.93608282       3.11714058       8.15205629      -0.00000445       0.00645679      -0.00195618
Ti       0.00014461       3.11537538       8.15297299      -0.00020796       0.00222824      -0.00735777
Ti       2.93616736       6.03558820       8.75685822      -0.00024450       0.00270792      -0.00632706
Ti       0.00012831       6.03652394       8.74256954      -0.00005593       0.00921586      -0.00765567
Ti       4.40558862       1.31625834       9.91506512       0.00100259       0.00369461       0.00124790
Ti       1.46653122       1.31627728       9.91505039      -0.00122930       0.00357131       0.00125483
Ti       4.40424864       4.14128160      10.41730542      -0.00634273      -0.00231026      -0.00530776
Ti       1.46786465       4.14128575      10.41731973       0.00643742      -0.00232407      -0.00526404
Ti       2.93603055       6.29185855      11.59212957      -0.00008045       0.00379983      -0.00668230
Ti      -0.00004501       6.30051954      11.56829022       0.00000522       0.00085693      -0.00163859
Ti       2.93593343       2.38382344      12.15895243      -0.00000330      -0.00151808      -0.00725837
Ti      -0.00000903       2.37857938      12.18014587       0.00010598       0.00001785      -0.00075025
Ti       1.44976020       4.51879741      13.40777917       0.00142095       0.00920982      -0.00061119
Ti       4.42198094       4.51879186      13.40766539      -0.00107446       0.00915563      -0.00035033
Ti       4.44150188       0.48140790      13.76937239       0.00342388       0.00070541      -0.00396861
Ti       1.43037406       0.48132014      13.76938958      -0.00341875       0.00102864      -0.00398435
Ti       0.00005062       2.57674667      15.02603231      -0.00030884      -0.00153959       0.00039975
Ti       2.93578466       2.52174362      14.99296600       0.00019537       0.01461660       0.00702571
Ti      -0.00050708       5.79552734      15.60064206       0.00045475       0.01056107       0.00094341
Ti       2.93606374       5.80269364      15.51768933      -0.00002431      -0.00052617      -0.00199737
Ti       4.37009162       3.86482874      16.96393673      -0.00233863      -0.00002687       0.00244762
Ti       1.50181278       3.86497764      16.96386471       0.00243042      -0.00018755       0.00245279
Ti       4.40554786       0.97081391      17.03387616       0.00445916      -0.00231857       0.00480602
Ti       1.46602131       0.97090484      17.03397864      -0.00425026      -0.00231394       0.00465142
Al       0.00001337       5.79653427      18.41749996      -0.00004114      -0.00043284       0.01099095
Ti       2.93604956       5.77875791      18.37357534      -0.00009188       0.00498376      -0.00767702
Ti       2.93594982       2.67660586      19.02927848       0.00001676      -0.00370699       0.00030288
Ti       0.00013469       2.78969642      19.03692708      -0.00011367      -0.00744857       0.01532146
Ti       4.43669318       0.60553910      20.17869151       0.00011204      -0.00415705       0.00523268
Ti       1.43546952       0.60550580      20.17872429      -0.00002560      -0.00414659       0.00514802
Ti       1.45320843       4.72401606      20.64381558       0.00119633      -0.00387832       0.00270747
Ti       4.41890221       4.72399680      20.64382186      -0.00118976      -0.00388214       0.00270726
Ti       2.93610261       2.58285767      21.82502806      -0.00008058      -0.01154400      -0.00457335
Ti       0.00011910       2.58335587      21.82263569      -0.00014794      -0.00957432       0.00552009
Ti       2.93609156       6.54273361      22.42712252      -0.00001075      -0.00825914       0.00759450
Ti       0.00004885       6.55966386      22.47364121      -0.00001488      -0.00814996       0.00778370
Ti       4.39964863       4.38394923      23.60637849      -0.00327746      -0.01449081       0.00298684
Ti       1.47240105       4.38398362      23.60636616       0.00330006      -0.01451596       0.00298673
Ti       4.40741303       1.58395044      24.09683817      -0.00279640      -0.00774666       0.00238973
Ti       1.46476689       1.58397025      24.09683682       0.00271250      -0.00795359       0.00232574
Ti       2.93609111       6.34307262      25.23309427      -0.00002036      -0.01071001       0.00353914
Ti      -0.00005663       6.34334188      25.26629581      -0.00001251      -0.00476088       0.00031864
Ti       0.00005691       3.30187728      25.85781462      -0.00011766      -0.00786536       0.00157372
Ti       2.93588005       3.30474882      25.86361318       0.00018214      -0.00788523       0.00247640
Ti       1.47190952       1.17711730      27.18502518      -0.00000797      -0.00588130       0.00067310
Ti       4.39970965       1.17707326      27.18498934       0.00036775      -0.00582959       0.00071306
