100
Lattice="4.4265 -2.555641 0.0 3.767997 6.526363 -0.031456 0.0 0.0 45.781652" Properties=species:S:1:pos:R:3:forces:R:3 job_name=Segregation-1sol-CSL13-V-V-60-d-5.27 top_level=Segregation-1sol solute=V energy=-775.55724296 stress_kbar_3x3="_JSON [[-37.54256884, -2.56210309, 0.10356177], [-2.56210307, -39.55833744, 0.76725087], [0.10356178, 0.76725088, -18.78020692]]" pbc="T T T"
Ti       2.48200475      -0.88871934       0.02065432      -0.01169474      -0.00833489      -0.00127585
Ti       5.77444245       1.56107254       0.00513439      -0.00075399      -0.01367791      -0.00076474
Ti       4.99636146      -0.79692808       1.38347030       0.00160191      -0.00289808      -0.01618173
Ti       4.59717621       3.78518073       1.36764668      -0.00404115       0.00000919      -0.01281985
Ti       7.11007011       3.87015590       2.62604630      -0.00393925      -0.00750778      -0.00395063
Ti       3.81427580       1.42310951       2.64210504      -0.00571107      -0.00685431      -0.00386748
Ti       1.67162092      -0.43313139       2.87897356      -0.00599037       0.00063372      -0.00053958
Ti       2.14830713       3.64272753       2.86311243       0.00419215      -0.00531006       0.00025479
Ti       4.73716987       3.65939773       4.16600906      -0.00573850      -0.00418756       0.00342695
Ti       4.81772972      -0.73815725       4.18173580       0.00021049      -0.00687249       0.00500430
Ti       3.44909688       5.87481842       5.25091728      -0.00283805       0.00048063      -0.00307758
Ti       2.95432006       1.80981237       5.26656090       0.00210274      -0.00256798      -0.00378447
Ti       2.41028967      -0.95024263       5.75838223       0.00086120      -0.00278898      -0.00158397
Ti       5.75744886       1.46827289       5.74207327      -0.00323320      -0.00105878      -0.00067892
Ti       4.27808869       3.76567656       6.95331046      -0.00080209      -0.00399950      -0.00403201
Ti       5.13982609      -1.08292371       6.96888014      -0.00268077      -0.00273964      -0.00383892
Ti       6.92510772       3.59562058       7.84697856       0.00388987      -0.00053566       0.00066541
Ti       3.66942507       1.12416358       7.86228830      -0.00215255       0.00326181       0.00075608
Ti       6.37500173       0.88768278       8.60714935       0.00384254      -0.00101188       0.00165427
Ti       1.59928813      -0.70579518       8.62308804      -0.00242785       0.00166265       0.00135162
Ti       4.78996826       3.18118985       9.68219675      -0.00230512      -0.00239719       0.00133624
Ti       4.37827708      -0.93231866       9.69835389      -0.00091707      -0.00299007       0.00062010
Ti       3.17601742       5.40943274      10.47661190      -0.00133881       0.00394870       0.00257587
Ti       2.68897927       1.33958911      10.49179481       0.00239820       0.00155308       0.00484842
Ti       5.89559514       5.19838755      11.43132725       0.00237740      -0.00036394       0.00408175
Ti       5.57319399       1.03418219      11.44730733      -0.00264912       0.00192108       0.00246451
Ti       0.59019863       0.91490871      12.37526400      -0.00332998      -0.00052698       0.00082446
Ti       3.85616803       3.37842929      12.35890488       0.00362744      -0.00082990       0.00236118
Ti       3.30630194       0.65175225      13.18203753      -0.00122384       0.00332106       0.00518875
Ti       6.69720712       3.04418323      13.16619872       0.00314299       0.00277080       0.00462848
Ti       5.09274122       5.36093217      14.27360131      -0.00217101       0.00211486       0.00523567
Ti       6.11401584       0.41960087      14.28993719       0.00154554       0.00126793       0.00275552
Ti       4.54043177       2.64192508      14.97560283       0.00147715       0.00166446       0.00346304
Ti       4.03432654      -1.41559984      14.99246479       0.00094766      -0.00223704       0.00234780
Ti       7.16672564       2.51183000      15.91153564       0.00344379       0.00167050       0.00520586
Ti       2.60679376       0.79183037      15.92848878       0.00262016       0.00237531       0.00021583
Ti       5.74136859       4.79892964      17.14958163       0.00391871       0.00119827       0.00013711
Ti       5.30323640       0.70228134      17.16420756      -0.00045710       0.00318562       0.00365913
Ti       3.61512610       2.94783817      17.58129653       0.00088563      -0.00090621      -0.00143457
Ti       0.33473087       0.48862401      17.59516309      -0.00044503       0.00313229       0.00003355
Ti       2.88536059       0.50906102      18.72682995       0.00355410       0.00698952      -0.00221982
Ti       6.78569653       2.61084522      18.71294945       0.00336635       0.00754278      -0.00860172
Ti       4.92732062       5.20341489      20.02276432      -0.00126237       0.00467801      -0.00418268
Ti       1.63424329       2.75646211      20.03847070       0.00870690      -0.00122497      -0.00077470
Ti       4.38881724       2.42365351      20.22469217       0.00134669       0.00207465      -0.00597678
Ti       3.92301680      -1.65817882      20.23908230       0.00287831       0.00719778      -0.00087183
Ti       6.90040866       2.52107577      21.50410432       0.00130179       0.00546836       0.01411843
Ti       2.74542847       0.55949680      21.51478193       0.00355714       0.00622337       0.00909897
Ti       3.58836459       2.87490812      22.90249711       0.00228124       0.00509079       0.00028541
Ti       0.29515021       0.43871924      22.93460930      -0.00678888      -0.01216132       0.00448407
Ti       5.72763617       4.74240512      22.87665059       0.00340006      -0.00223108       0.00683195
Ti       5.25639156       0.66284551      22.88687942       0.00479596       0.01120726       0.00888351
Ti       2.77051633       0.54810169      24.29267183       0.00030300       0.00575212       0.00523013
Ti       6.89576974       2.53756693      24.27451319       0.00270357       0.00213344      -0.00154049
Ti       3.92350111      -1.64861228      25.67769806      -0.01077846      -0.00698730      -0.00536526
Ti       4.39511962       2.41661547      25.55657748      -0.00260214       0.01480292      -0.00102036
Ti       1.64962963       2.76633751      25.73114861      -0.00230324       0.00532612      -0.00566258
Ti       4.92154829       5.21582024      25.71097951       0.00643242       0.00156750       0.00037463
Ti       2.83677468       0.54385718      27.10150551       0.01118954      -0.00005915      -0.01627524
Ti       6.80289843       2.62266430      27.07103263       0.00848859       0.00122083      -0.01042444
V        0.33041836       0.40950467      28.20606253       0.00377721      -0.00136125      -0.00643982
Ti       3.68944990       2.96110816      28.16219291       0.00939095       0.00381300       0.00087868
Ti       5.31147740       0.56011590      28.59042745       0.00627951       0.01064733      -0.00307787
Ti       5.78458462       4.83614067      28.55383502       0.00283446      -0.00591398      -0.00124156
Ti       7.23294897       2.50618105      29.82340771       0.00255827       0.00255669      -0.00023458
Ti       2.49777520       0.88964040      29.85834450      -0.00000818       0.00062770       0.00745293
Ti       4.58293999       2.65373688      30.70685496      -0.00667077       0.00486280       0.00237739
Ti       4.08687133      -1.31774227      30.67711224       0.00134730       0.00507717       0.00220310
Ti       6.14862668       0.49302656      31.51898016       0.00428563      -0.00677556      -0.00049948
Ti       5.13892260       5.36711397      31.44265943       0.00032387       0.00503549      -0.00035194
Ti       3.35585588       0.68532896      32.55403834       0.00013150       0.00248563      -0.00104561
Ti       6.69358994       3.14737070      32.53623358       0.00059865       0.00135235      -0.00857954
Ti       3.93578287       3.45835386      33.33261572      -0.00322089       0.00027560      -0.00276349
Ti       0.62590063       0.97789550      33.32510092      -0.00681080       0.00323753      -0.00566417
Ti       2.16382636      -1.23957716      34.35005990       0.00532183      -0.00008078      -0.00527177
Ti       5.60169917       1.10282657      34.33634668      -0.00444663       0.00183089      -0.00023379
Ti       3.22147627       5.48564899      35.19633466      -0.00052051       0.00516996      -0.00366373
Ti       2.72261629       1.44829183      35.19784596       0.00496820      -0.00073168      -0.00435231
Ti       4.79001911       3.27968451      36.02284960       0.00258613      -0.00076688       0.00538806
Ti       4.46531177      -0.88273666      36.03636681       0.00042250      -0.00624418      -0.00266011
Ti       6.41785561       0.94336796      37.17962914       0.00122105      -0.00165597       0.00250663
Ti       1.61149472      -0.63386528      37.20340792      -0.00122707       0.00306462       0.00249438
Ti       6.97331451       3.68296302      37.79097946       0.00302922       0.00382541       0.00253092
Ti       3.70822303       1.20990218      37.80049807      -0.00586921      -0.00111304      -0.00148019
Ti       4.37565898       3.76997163      38.78202540       0.00262510      -0.00650336       0.00418716
Ti       5.08446047      -0.98806356      38.79995543      -0.00298473      -0.00068116       0.00457874
Ti       5.74646451       1.50207806      40.06706648      -0.00433158      -0.00426376      -0.00581384
Ti       2.43776996      -0.93986671      40.08670914      -0.00244818      -0.00237223      -0.00442547
Ti       3.46027075       5.91169561      40.39092955      -0.00347058      -0.00341005       0.00080955
Ti       2.97664563       1.84099354      40.40346500      -0.00299239      -0.00378822       0.00556736
Ti       4.68226337       3.69843093      41.58785032      -0.00392493      -0.00175755      -0.00545723
Ti       4.87882743      -0.76308012      41.60396592      -0.00516996      -0.00455280      -0.00378061
Ti       2.14599343       3.64185482      42.93130583       0.00123888      -0.00306324       0.00412464
Ti       1.66726386      -0.43488121      42.94650524      -0.00402775      -0.00019876       0.00405070
Ti       7.11128407       3.87128482      43.04341084      -0.00145260      -0.01086067       0.00121518
Ti       3.80970549       1.42403634      43.05743053      -0.00570399      -0.00365322       0.00140352
Ti       4.62052390       3.76760449      44.37244234      -0.00131656      -0.00031474       0.01185617
Ti       4.96937436      -0.78279657      44.38814020      -0.00013759      -0.00290065       0.01371067
Ti       3.48989867       5.97833131      45.73194560      -0.00155434      -0.00000620      -0.00142609
Ti       3.02269100       1.89676476      45.74840287      -0.00146652      -0.00107898      -0.00253017
