100
Lattice="4.4265 -2.555641 0.0 3.767997 6.526363 -0.031456 0.0 0.0 45.781652" Properties=species:S:1:pos:R:3:forces:R:3 job_name=Segregation-1sol-CSL13-Al-Al-49-d-0.01 top_level=Segregation-1sol solute=Al energy=-771.63086651 stress_kbar_3x3="_JSON [[-36.35631031, -2.23799492, 1.32074364], [-2.23799498, -38.17100799, 0.86305562], [1.32074362, 0.8630556, -16.43657806]]" pbc="T T T"
Ti       2.40308973      -1.02426942       0.20761247      -0.00579757      -0.00298923       0.00605745
Ti       5.72013918       1.41366369       0.19239014      -0.00159123      -0.00570085       0.00440244
Ti       5.06583528      -1.06225945       1.46846282       0.00007225      -0.00955687      -0.00012647
Ti       4.35908646       3.69573838       1.45189324      -0.01242775      -0.00066588      -0.00041668
Ti       6.96147083       3.61690653       2.43702200      -0.01101954      -0.01280259      -0.00967314
Ti       3.69365762       1.15083109       2.44975447      -0.00579138      -0.01022809      -0.00961867
Ti       1.60432747      -0.69015117       3.07842920       0.00068842      -0.01046076       0.00662581
Ti       6.41028888       0.88763199       3.05990475      -0.01225397      -0.00660037       0.00791229
Ti       4.77799915       3.23818241       4.20787779       0.00217983      -0.01104617      -0.00409112
Ti       4.45455035      -0.92623116       4.22288390      -0.01187891      -0.00372988      -0.00444340
Ti       3.22967899       5.45122856       5.03829541      -0.00894928      -0.00719645      -0.00630254
Ti       2.72110891       1.39266046       5.04984567      -0.00670822      -0.01263705      -0.00426180
Ti       5.93443436       5.23407027       5.89478352      -0.00654185      -0.00343532       0.00840424
Ti       5.60653454       1.07610751       5.90660574      -0.00048863      -0.00854140       0.00994343
Ti       3.90397528       3.41118614       6.90275278      -0.00739380       0.00176051      -0.00070355
Ti       0.61786448       0.96790681       6.91598839      -0.00371314      -0.00608530       0.00291562
Ti       6.69562496       3.09259375       7.68961924       0.00099376      -0.00430048       0.00196666
Ti       3.36992168       0.66122385       7.70486571      -0.00961363       0.00335997       0.00079507
Ti       6.11639959       0.44120877       8.75945975       0.00242628       0.00318292       0.00784236
Ti       5.11801503       5.37143765       8.73937489       0.00091251       0.00471367       0.00994922
Ti       4.57009666       2.67329829       9.53386939      -0.00440356       0.00086920      -0.00604800
Ti       4.05080961      -1.39230908       9.54134215      -0.00106033       0.00188826      -0.00456129
Ti       7.22140884       2.47731795      10.40450981      -0.00771192       0.01256755      -0.00062240
Ti       2.56269892       0.81855506      10.42069801       0.01107856       0.00057761      -0.00043756
Ti       5.70714964       4.79164042      11.62298226       0.00731386       0.00243957       0.00608135
Ti       5.29837844       0.67242268      11.63299812      -0.00110713       0.00917461       0.00727009
Ti       0.32338370       0.47576019      12.13034246       0.00173281       0.00271671      -0.00063232
Ti       3.59604095       2.93090705      12.11492394       0.00514238       0.00296248      -0.00455692
Ti       2.87968619       0.47036049      13.20663163       0.00112094       0.00749766      -0.00012668
Ti       6.73292129       2.59583703      13.18174352       0.00878882       0.00490718       0.00305796
Ti       4.88075146       5.18490910      14.51888072       0.00042353       0.00396560       0.00381001
Ti       1.60857508       2.72589756      14.53401369       0.00295620       0.00269616       0.00228071
Ti       4.36465731       2.38777337      14.71992059       0.00024281       0.00808577      -0.00333360
Ti       3.86949560      -1.68846305      14.73093049       0.00464949       0.00585358       0.00381218
Ti       6.84665564       2.48450958      15.99329562       0.00461513       0.00404740       0.01003185
Ti       2.71878354       0.52702016      16.00588849       0.00311984       0.00599269       0.00881574
Ti       5.70956227       4.70912995      17.40801443       0.00813446       0.00992791      -0.00416289
Ti       5.20214950       0.63919589      17.42211105       0.00863658       0.00650067       0.00308843
Ti       3.54616217       2.85702997      17.34753115       0.00169727       0.00703861       0.00184613
Ti       0.26009425       0.38338538      17.37571379       0.00411548      -0.00239837      -0.00315556
Ti       2.66308565       0.59531567      18.81301253       0.01179653       0.00408723      -0.00054568
Ti       6.87644241       2.46822614      18.80624644      -0.00264313      -0.00706736      -0.00983692
Ti       4.86712465       5.32015638      20.25453158       0.00552137      -0.00225738      -0.00400951
Ti       5.96200967       0.17146299      20.40094770      -0.00275324      -0.00235466       0.00216320
Ti       4.36255349       2.48805011      19.97303975      -0.00138909       0.00604975       0.00023473
Ti       3.75793542      -1.63303925      19.92631691       0.00240928       0.01232113       0.00771046
Ti       6.66553510       2.71213208      21.59972098       0.00325128      -0.00373231       0.00339016
Ti       3.05109440       0.49594832      21.64127167       0.00240051       0.00010661      -0.00078506
Ti       3.67651726       3.09429865      22.54335566       0.00338663      -0.00122933       0.00710818
Al       4.77473409      -1.84266628      22.44681134      -0.00160583      -0.00198057      -0.00089875
Ti       5.67338665       4.96409581      23.19054467       0.00094887      -0.00287181      -0.00180703
Ti       5.44061309       0.80213677      23.29836350      -0.00184291      -0.00095794       0.00152964
Ti       2.42896491       1.04987970      24.34208514      -0.00310671      -0.00147621       0.00171556
Ti       3.04391649       5.22092896      24.31308950      -0.00562807      -0.00356091       0.00043511
Ti       4.12982249      -1.08058883      25.05931810      -0.00341350       0.00196495      -0.00600387
Ti       4.65000717       2.92574601      25.10599778      -0.00523337      -0.00099406       0.00075842
Ti       6.23409556       0.61566790      26.08023813      -0.00425731      -0.00743373       0.00668551
Ti       5.29750711       5.58035959      26.15752496       0.00207012      -0.00236287      -0.00378847
Ti       3.56914296       0.92896768      26.94057314      -0.00166755       0.00147915       0.00393770
Ti       6.76304678       3.29325922      26.96376779       0.00036156      -0.00375883      -0.00656810
Ti       5.02326983      -1.32532882      27.77285434      -0.00354942      -0.00141931       0.00048209
Ti       4.09307395       3.57970785      27.79377169       0.00271054       0.00102710       0.00134731
Ti       5.69850616       1.22390300      28.97268903       0.00576979       0.00443562      -0.00593199
Ti       2.31788563      -1.19028006      29.00012962       0.00255773       0.00322474      -0.00304536
Ti       3.37260739       5.65422998      29.52852447      -0.00143482       0.00269081       0.00193192
Ti       2.82884526       1.54651702      29.54631035      -0.00284341       0.00010807      -0.00017457
Ti       4.68922539       3.41424266      30.54858789      -0.00186196       0.00723638      -0.00212452
Ti       4.69773296      -0.92941508      30.58073248      -0.00353695       0.01000371      -0.00469878
Ti       2.06851919       3.43369115      31.82948124       0.00186017       0.00248873      -0.00137511
Ti       1.60578887      -0.64592028      31.86708195       0.00013781       0.00531131      -0.00518052
Ti       3.74034310       1.21344074      32.15784042      -0.00678589       0.00749914       0.00329080
Ti       7.02256642       3.65697573      32.14211481       0.00406783       0.00341626      -0.00451375
Ti       4.49402573       3.61443313      33.35280352      -0.00118899       0.00634743      -0.00144775
Ti       4.95154657      -1.00348131      33.37366789       0.00029951      -0.00101201      -0.00698437
Ti       2.41187671      -1.06215517      34.69690038      -0.00427286       0.00365410      -0.00366874
Ti       5.71226046       1.39243257      34.67956218       0.00172933      -0.00562561      -0.00206688
Ti       3.42030811       5.80278818      34.82115403       0.00121163      -0.00104808       0.00138533
Ti       2.95415269       1.71760258      34.82953065      -0.00340324       0.00308516       0.00571731
Ti       4.58745827       3.59313436      36.13107857       0.00310142      -0.00029642       0.00164504
Ti       4.87485408      -0.91657600      36.14585082       0.00083038      -0.00363189       0.00242259
Ti       2.08126437       3.51334573      37.50059151       0.00610713      -0.00413251      -0.00357565
Ti       1.61904601      -0.57153078      37.51300109      -0.00429599       0.00071587      -0.00097912
Ti       7.05879838       3.72861705      37.52638247       0.00712671      -0.00262158      -0.00090161
Ti       3.74331170       1.29040557      37.54346878      -0.00156341       0.00411250       0.00034384
Ti       4.56943502       3.62869148      38.89442665       0.00136909      -0.00408971      -0.00060175
Ti       4.89412850      -0.91199340      38.90996270       0.00673606      -0.00173248       0.00019047
Ti       5.71514841       1.42949570      40.31184901       0.00412623       0.00259594      -0.00222480
Ti       2.41238991      -1.01099302      40.32642907       0.00378826      -0.00204637       0.00108011
Ti       3.41451467       5.84651814      40.24244292       0.00678749      -0.00012863      -0.00153623
Ti       2.96076006       1.75991199      40.25690900       0.00637748      -0.00117015      -0.00186592
Ti       4.54241805       3.65708505      41.65884143       0.00467381      -0.00075904      -0.00393272
Ti       4.92556593      -0.91727261      41.67529371       0.00550708      -0.00060388      -0.00170081
Ti       2.09137010       3.53105848      43.13137443       0.00272532       0.00080292       0.00211892
Ti       1.61934869      -0.54636128      43.14748560       0.00252505       0.00012227       0.00323343
Ti       7.05567823       3.75231131      42.94996051       0.00146972      -0.00074356      -0.00621103
Ti       3.75526973       1.30711315      42.96240795       0.00040542      -0.00357163      -0.00198705
Ti       4.64689294       3.59339535      44.43650924       0.00422888      -0.00580948       0.00467015
Ti       4.82386521      -0.85905484      44.45395615      -0.00545330       0.00028881      -0.00002764
Ti       3.42218216       5.81910828      45.61219000      -0.00380563      -0.00456730      -0.00893250
Ti       2.94139060       1.74580341      45.62549650      -0.00542879      -0.00247927      -0.00522992
