64
Lattice="5.088765 0.0 0.0 0.0 9.739025 0.0 0.0 0.0 22.303587" Properties=species:S:1:pos:R:3:forces:R:3 job_name=Segregation-1sol-T2-Al-Al-37-d-1.39 top_level=Segregation-1sol solute=Al energy=-492.07555028 stress_kbar_3x3="_JSON [[-1.21038237, 2.54595819, 2.51645302], [2.54595818, -16.42478823, 3.52008615], [2.51645303, 3.52008616, -17.25247103]]" pbc="T T T"
Ti       2.56926001       9.26790681       0.00337782       0.00182688      -0.00223049      -0.00344947
Ti       0.01427129       4.40092270       0.00818378      -0.00414765       0.00460715       0.00910697
Ti       1.29513524       1.90084851       0.60749425      -0.00130181       0.00839636      -0.00235486
Ti       3.83313480       6.77222540       0.60069908       0.00128621      -0.00853008       0.00665979
Ti       2.70477975       4.10774787       1.38868951       0.00305269       0.00847352       0.00442289
Ti       0.16618614       8.97448640       1.37243428       0.00038126      -0.00829613       0.00065267
Ti       1.02646110       6.22073292       2.13189527      -0.00406781      -0.00587061       0.00408385
Ti       3.57540088       1.35423334       2.13642820       0.00173732       0.00548130       0.00609882
Ti       0.23117420       3.49177270       2.75398632      -0.00202847       0.00925777       0.00601032
Ti       2.77511124       8.36263792       2.75168472       0.00039027      -0.00961437       0.00403115
Ti       1.10609797       0.85486377       3.50715467      -0.00120392       0.00547638       0.01157207
Ti       3.64972700       5.72812787       3.51323687       0.00409980      -0.00569801       0.00508993
Ti       2.75853199       3.09743215       4.19408422       0.00133562       0.01015608       0.00779644
Ti       0.21369946       7.96636539       4.18160237      -0.00171864      -0.00657096       0.00555795
Ti       3.59196536       0.40381633       4.85897195       0.00079665       0.00361313       0.00619822
Ti       1.04804171       5.27117241       4.84937330      -0.00272555      -0.00414352      -0.00304183
Ti       2.72835042       7.49441663       5.58263920      -0.00046857      -0.00463474      -0.00115151
Ti       0.18528576       2.61846161       5.58277648      -0.00152981       0.00320728      -0.00129273
Ti       3.59804015       4.84119900       6.33364802       0.00081575      -0.00333440      -0.00742057
Ti       1.05546462       9.70856857       6.31863922       0.00084536       0.00105068       0.00140142
Ti       0.16840396       7.04611069       6.92149350      -0.00150829      -0.00255797      -0.00582425
Ti       2.71422962       2.18475674       6.94635574       0.00049097       0.00123359      -0.01007928
Ti       1.07971519       4.43898907       7.63578993       0.00060209       0.00210295      -0.00888989
Ti       3.62445021       9.32717771       7.65248934       0.00243212       0.00318057      -0.00642861
Ti       0.24076684       1.77363917       8.38257545      -0.00429638      -0.00129597      -0.00880383
Ti       2.77583333       6.65125610       8.38159076       0.00105793      -0.00276214      -0.00768718
Ti       0.95223702       8.71606957       9.02404804      -0.00210541      -0.00219942      -0.00885972
Ti       3.47070256       3.84253651       9.05957955       0.00413660      -0.00193917      -0.00830630
Ti       2.55933625       1.04463032       9.86039266       0.00223360      -0.00416540      -0.00018498
Ti       0.04153640       5.89947896       9.77333278      -0.00149159      -0.00460295      -0.00658479
Ti       3.84964948       8.18965287      10.57235314      -0.00182394       0.00255948      -0.00361770
Ti       1.25435571       3.31913555      10.59415482       0.00144838      -0.00072527      -0.00062957
Ti       0.00088097       0.91214020      11.09752443      -0.00652084       0.00130661      -0.00921063
Ti       2.52097931       5.81573857      11.09473316       0.01012102      -0.00641968       0.00094140
Ti       3.81129753       3.53121509      11.80622852      -0.00227528      -0.00452497       0.00063187
Ti       1.37957895       8.43895982      11.75834076       0.00305235       0.00095837      -0.00139598
Ti       2.33927025       1.35694985      12.62476282       0.00348045       0.00530408       0.00842824
Al       4.89950101       6.23499335      12.52134014      -0.00536904       0.00011126      -0.00131737
Ti       1.42185150       4.04547556      13.31162139       0.00288430      -0.00346662       0.01027044
Ti       4.10657699       8.91029619      13.25604072      -0.00466132       0.00525393       0.01181750
Ti       4.90699728       1.88115083      13.90858986      -0.00083923       0.00419196       0.00872617
Ti       2.33669235       6.72934002      13.88267381       0.00223438      -0.00167007       0.01087063
Ti       1.47406575       9.34377409      14.67222130      -0.00320126       0.00273662       0.00771712
Ti       3.93363487       4.47252628      14.57837577      -0.00467036      -0.00434076       0.01016618
Ti       4.92906705       7.07386070      15.28366088      -0.00110751      -0.00052648       0.01144206
Ti       2.35832778       2.23024597      15.35569813       0.00227037       0.00329504       0.00241954
Ti       1.52855515       4.88328941      16.02569350       0.00345266      -0.00205993       0.00560293
Ti       4.07344561       0.02072650      15.99974971       0.00139525      -0.00205604      -0.00382917
Ti       2.37116669       7.54275323      16.70690106       0.00152930      -0.00371782       0.00109626
Ti       4.90052682       2.69749481      16.70209670      -0.00014319       0.00678561      -0.00121404
Ti       4.04183222       5.33028102      17.44658868      -0.00024499       0.00185067       0.00066489
Ti       1.49968873       0.44984131      17.46611180      -0.00056625       0.00416483      -0.00508913
Ti       4.91319274       7.98482485      18.10149623      -0.00134688      -0.00787584      -0.00581768
Ti       2.36056226       3.11416347      18.13453697       0.00169702       0.00910622      -0.00373426
Ti       1.45749007       5.74351779      18.79432758      -0.00098593      -0.00417328      -0.00279259
Ti       4.00787264       0.87572999      18.77983266      -0.00222320       0.00464249      -0.00338173
Ti       2.35724984       8.34950101      19.52831248       0.00405663      -0.00763994      -0.00538833
Ti       4.89543578       3.49003239      19.53470504      -0.00189562       0.00717883      -0.00625550
Ti       1.54352976       1.33039499      20.18562804       0.00321781       0.00653761      -0.00546941
Ti       4.08642552       6.20521189      20.17605521      -0.00231680      -0.00246382      -0.00729394
Ti       4.93085572       8.94253451      20.88713818      -0.00403188      -0.00368893      -0.00303428
Ti       2.37791673       4.07484929      20.91009698       0.00305390       0.00193274      -0.00641838
Ti       3.84336722       1.89020199      21.69574479      -0.00062288       0.00561378      -0.00658171
Ti       1.29040153       6.75727319      21.69607729       0.00202535      -0.00597111       0.00335347
