64
Lattice="5.872 0.0 0.0 0.0 6.890708 0.0 0.0 0.0 27.394398" Properties=species:S:1:pos:R:3:forces:R:3 job_name=Segregation-1sol-T1g-Al-Al-48-d-6.96 top_level=Segregation-1sol solute=Al energy=-491.96893468 stress_kbar_3x3="_JSON [[-10.60295778, -8.808e-05, 0.00079776], [-8.809e-05, -9.76018736, 0.13827787], [0.00079775, 0.13827786, -19.93344256]]" pbc="T T T"
Ti       4.40397210       5.20704927      27.36781884       0.00003387      -0.01079475      -0.01094537
Ti       1.46809567       5.21109649      27.37633330      -0.00019100      -0.01390460       0.00123520
Ti       5.86792780       3.19012042       1.27656114      -0.00179698       0.00138213      -0.00741126
Ti       2.94011958       3.19008172       1.27658560       0.00170540       0.00133308      -0.00731448
Ti       0.00021678       6.62829917       1.89472105       0.00042987      -0.00859418      -0.00389416
Ti       2.93575735       6.62829048       1.89470467      -0.00034209      -0.00832391      -0.00327308
Ti       4.40405369       1.76506936       3.18456582      -0.00010695      -0.00172486      -0.00596339
Ti       1.46788762       1.76546738       3.18325553       0.00012711       0.00111365      -0.00585993
Ti       1.46796884       4.59495081       3.40167596      -0.00003964      -0.00501732       0.00050986
Ti       4.40399341       4.59483294       3.40390969       0.00006362      -0.00634462      -0.00065074
Ti       0.00147520       6.72487956       4.71297529       0.00063954      -0.00553900       0.00259641
Ti       2.93442824       6.72483788       4.71305606      -0.00068271      -0.00542436       0.00200923
Ti       2.93656748       2.87547298       5.32300848      -0.00039613      -0.00292039       0.00237198
Ti       5.87133394       2.87548681       5.32306078       0.00028533      -0.00299679       0.00232228
Ti       4.40394024       5.00563875       6.48423961       0.00004384      -0.00111144       0.00113876
Ti       1.46790810       5.00565344       6.48344937       0.00016409      -0.00078873       0.00090716
Ti       4.40394366       0.93374486       6.96028705       0.00006153      -0.00220429       0.00072684
Ti       1.46790492       0.93266236       6.96060316       0.00014783      -0.00182918       0.00022483
Ti       2.93528914       3.09345436       8.14601639      -0.00067021      -0.00284912      -0.00113719
Ti       0.00064712       3.09347163       8.14604616       0.00061133      -0.00286432      -0.00105593
Ti       2.93532053       6.02155077       8.74660771      -0.00147806      -0.00183249      -0.00150043
Ti       0.00058050       6.02156317       8.74665669       0.00161516      -0.00209343      -0.00153935
Ti       4.40401359       1.29171708       9.92809034      -0.00007873      -0.00096651       0.00120563
Ti       1.46800893       1.29198345       9.92755051       0.00007581      -0.00251416       0.00120982
Ti       4.40398596       4.10868486      10.40629193      -0.00007519      -0.00590576       0.00508098
Ti       1.46795083       4.10896773      10.40778054       0.00023489      -0.00628843       0.00167252
Ti       2.94147313       6.23805008      11.56863499       0.00242444      -0.00144117       0.00454313
Ti       5.86659479       6.23802584      11.56866727      -0.00253864      -0.00125026       0.00465460
Ti       2.93071774       2.38580579      12.17489065      -0.00163161      -0.00219827       0.00586479
Ti       0.00536593       2.38584116      12.17479652       0.00142675      -0.00242704       0.00643629
Ti       1.46805400       4.50911171      13.49919739       0.00017075      -0.00507403       0.00760608
Ti       4.40404846       4.51214944      13.48604742      -0.00004419      -0.00075568       0.00661183
Ti       4.40399025       0.45485941      13.70091405       0.00004644      -0.00001407      -0.00252587
Ti       1.46810407       0.44557679      13.70518861       0.00011767      -0.00335177       0.00001731
Ti       0.01883226       2.46744199      14.99359905       0.00419329      -0.00593840       0.00249610
Ti       2.91736218       2.46749293      14.99362155      -0.00448887      -0.00590925       0.00280972
Ti       5.83722820       5.92617977      15.62171805      -0.00412547       0.00815911       0.00283519
Ti       2.97094849       5.92611124      15.62179054       0.00394879       0.00846931       0.00270690
Ti       4.40409518       3.89716278      16.90187829      -0.00001139      -0.00186719      -0.00844067
Ti       1.46799114       3.90007502      16.86090724       0.00005275       0.00297265      -0.00311218
Ti       4.40414429       1.06300076      17.09737340      -0.00008340      -0.00188723       0.00406256
Ti       1.46809259       1.05038916      17.14803943       0.00008787      -0.00684286       0.00928949
Ti       5.86164594       5.85358096      18.45084403       0.00063564       0.01523361       0.00756498
Ti       2.94647571       5.85360242      18.45091006      -0.00069463       0.01534512       0.00752910
Ti       2.89294430       2.82218245      19.03138231      -0.00404870       0.01259055       0.00727774
Ti       0.04312635       2.82217338      19.03140940       0.00403298       0.01271281       0.00728543
Ti       4.40402356       0.74224302      20.16172071      -0.00002018       0.00566082      -0.00115264
Ti       1.46797726       0.63645014      20.17719839       0.00012882      -0.00001360      -0.00447921
Al       1.46798877       4.74076007      20.66472295       0.00024538      -0.00032154       0.00299617
Ti       4.40403530       4.78211415      20.69254411      -0.00011153      -0.00049644      -0.00990456
Ti       2.91510958       2.60254784      21.83711980      -0.00110084       0.00792945      -0.00190358
Ti       0.02092335       2.60255185      21.83717356       0.00099301       0.00792016      -0.00221949
Ti       2.94755766       6.53121350      22.40380679      -0.00762561       0.00509822       0.00161148
Ti       5.86045916       6.53120073      22.40386356       0.00744341       0.00522495       0.00142493
Ti       4.40399966       4.37447960      23.66271289      -0.00001952       0.00688135       0.00995283
Ti       1.46800595       4.37457041      23.60118877       0.00008284       0.00606310      -0.00376700
Ti       4.40399789       1.54771636      24.07226889      -0.00001025       0.00223668      -0.00236182
Ti       1.46797849       1.56300970      24.05007470       0.00013693       0.00766167      -0.01455530
Ti       2.92478607       6.31696738      25.24204361       0.00806299      -0.00100148      -0.01089958
Ti       0.01120246       6.31699581      25.24206273      -0.00796558      -0.00116599      -0.01069349
Ti       0.01015623       3.26718105      25.84835631      -0.00136535      -0.00139056      -0.00265250
Ti       2.92586522       3.26717116      25.84839201       0.00136837      -0.00130578      -0.00277558
Ti       1.46804834       1.14954137      27.16597457      -0.00012356       0.00319308       0.00169381
Ti       4.40400472       1.14529448      27.18417498       0.00002868       0.01030376       0.00150686
