52
Lattice="4.6568 0.0 0.0 0.0 7.770572 0.0 0.0 0.0 25.044546" Properties=species:S:1:pos:R:3:forces:R:3 job_name=Segregation-1sol-CSL7-Al-Al-31-d-3.01 top_level=Segregation-1sol solute=Al energy=-397.42126315 stress_kbar_3x3="_JSON [[-15.52745836, 0.25905142, 0.20607887], [0.25905146, -23.87052328, 0.51358492], [0.20607884, 0.5135849, -19.75500533]]" pbc="T T T"
Ti       1.81820804       7.39432845       0.70539244      -0.00510842       0.00233160       0.00505811
Ti       4.62806727       5.59860073       1.36314508       0.00025335      -0.00224335       0.00752123
Ti       2.45560366       2.27386198       1.61495346       0.00138257      -0.00037306       0.00317630
Ti       4.56276811       0.62234515       2.07479764      -0.00164164       0.00199073       0.00452306
Ti       2.35431553       5.00777445       2.82351579      -0.00035082      -0.00007864       0.00469567
Ti       0.02089645       3.33593998       3.01158254       0.00002259      -0.00064230       0.00275307
Ti       2.30722605       0.01014774       3.64990497       0.00003037       0.00041276       0.00240677
Ti       0.02784128       6.10343038       4.08446918      -0.00019585       0.00075381       0.00165045
Ti       2.33633418       2.76281395       4.59821874       0.00029916      -0.00066048       0.00138285
Ti      -0.00081960       1.11745384       4.99367827       0.00028747       0.00029650       0.00088636
Ti       2.34669370       5.56675618       5.61223812       0.00037682      -0.00041001      -0.00043280
Ti       0.00942401       3.87381592       5.94365536       0.00005884       0.00008555      -0.00168760
Ti       2.33286801       0.56482448       6.58373797       0.00011720       0.00085514      -0.00086643
Ti       0.01450232       6.63687464       6.90564382       0.00028369      -0.00024850      -0.00371218
Ti       2.33102527       3.32465009       7.53041809      -0.00015595       0.00021397      -0.00311406
Ti       0.00924657       1.68213203       7.92558771       0.00037195       0.00062520      -0.00372102
Ti       2.35428230       6.10091278       8.43813875       0.00032346       0.00023105      -0.00357789
Ti       4.63585293       4.42459403       8.88053769      -0.00005761      -0.00125284      -0.00234181
Ti       2.34403172       1.10663580       9.52361079       0.00083698       0.00306363      -0.00213721
Ti       0.01995949       7.19882497       9.67690431      -0.00102933       0.00006838      -0.00363560
Ti       2.24327895       3.80663037      10.46214702       0.00182115      -0.00325976      -0.00121979
Ti       0.13051610       2.16354355      10.93955615       0.00045715       0.00107099      -0.00352674
Ti       2.29945595       6.60256942      11.16509521       0.00041317      -0.00147518      -0.00347135
Ti       4.14457459       4.80229254      11.81589248      -0.01230335      -0.00459002      -0.00598993
Ti       2.71175690       1.61294943      12.54505521      -0.00373969      -0.00091762       0.00297718
Ti       0.34921132       7.60744948      12.47061950      -0.00139409       0.00108815       0.00367934
Ti       1.25692421       4.80669823      13.27984639       0.00683127       0.00076534       0.00856696
Ti       3.11265744       6.61610610      13.88671114      -0.00114190       0.00355389       0.00344512
Ti       0.64183834       2.12188221      14.15849635       0.00062944      -0.00206994      -0.00020715
Ti       3.22700214       3.80477663      14.62178215       0.00124961      -0.00168669       0.00421548
Ti       0.70088024       7.26136227      15.37301008       0.00082795       0.00107075       0.00555169
Al       3.01637852       1.13731553      15.53294454       0.00192380       0.00455253      -0.00263376
Ti       0.78347113       4.52976474      16.18775993       0.00019345      -0.00261501       0.00276879
Ti       3.06431753       6.17794937      16.60857254       0.00029085       0.00086417       0.00134374
Ti       0.70081241       1.71282775      17.06923735       0.00160752       0.00023371       0.00162017
Ti       3.10768857       3.35400185      17.47456168      -0.00003276      -0.00036235       0.00142861
Ti       0.73132145       6.62480935      18.15785333       0.00050987       0.00146983       0.00093815
Ti       3.08873661       0.56872931      18.44462551      -0.00044513       0.00074160      -0.00116177
Ti       0.75365269       3.85292666      19.08357812      -0.00005013      -0.00123846      -0.00092700
Ti       3.06825694       5.55437618      19.42569658      -0.00011370       0.00002074      -0.00102320
Ti       0.74638305       1.10893250      20.04884665      -0.00014981      -0.00034346      -0.00359993
Ti       3.07584995       2.75680916      20.43588549       0.00040799      -0.00162037      -0.00305034
Ti       0.72261656       6.08534321      20.95931247       0.00023538       0.00184268      -0.00407980
Ti       3.10132992       7.76544688      21.38233846       0.00038376       0.00119070      -0.00225373
Ti       0.72980999       3.33111138      22.02717556      -0.00023482      -0.00100690      -0.00265127
Ti       3.05208275       4.99707141      22.21497210       0.00067391      -0.00004623      -0.00331120
Ti       0.84727459       0.61994776      22.95355847       0.00115201       0.00186203      -0.00455049
Ti       2.95141723       2.26842222      23.42873686       0.00110828       0.00027227      -0.00093085
Ti       0.78055110       5.59350484      23.67457466      -0.00149392      -0.00219713      -0.00157464
Ti       3.59144039       7.38868127      24.32514053       0.00156867       0.00057704      -0.00297093
Ti       0.37582060       2.79597204      25.03988318       0.00067963      -0.00107821       0.00150597
Ti       2.70525548       4.56429340      25.04402588       0.00202960      -0.00168820       0.00226538
