64
Lattice="5.088765 0.0 0.0 0.0 9.739025 0.0 0.0 0.0 22.303587" Properties=species:S:1:pos:R:3:forces:R:3 job_name=Segregation-1sol-T2-Al-Al-39-d-2.12 top_level=Segregation-1sol solute=Al energy=-492.13572964 stress_kbar_3x3="_JSON [[-1.88676361, 1.05667364, -1.22567603], [1.05667365, -16.51761954, 3.34738812], [-1.22567605, 3.3473881, -17.88435404]]" pbc="T T T"
Ti       2.54338334       9.26251923       0.01929810       0.00285513       0.00434712      -0.00163503
Ti      -0.00028023       4.39390184       0.01908860      -0.00461587       0.00251120       0.00359572
Ti       1.27733812       1.90465482       0.61236508       0.00063575       0.00072444       0.00235918
Ti       3.82129660       6.77554538       0.60940682       0.00306227       0.00070831       0.00226896
Ti       2.68268387       4.11522820       1.37348610       0.00302355       0.00446591       0.00626792
Ti       0.13751212       8.99299091       1.38109287       0.00074423       0.00383933       0.00642413
Ti       1.02641086       6.23941851       2.12491884       0.00040057       0.00188780       0.01189688
Ti       3.56956878       1.36876169       2.12306184       0.00010403       0.00122976       0.00660280
Ti       0.23151011       3.50482797       2.76683864      -0.00080438      -0.00075305       0.00626673
Ti       2.77383299       8.37811813       2.76077358      -0.00221644      -0.00252297       0.00845793
Ti       1.10625707       0.86275676       3.51852342       0.00069657      -0.00396361       0.00559533
Ti       3.64842217       5.73379530       3.49564991      -0.00169274      -0.00273730       0.00438648
Ti       2.76144672       3.09894003       4.18265597      -0.00223722       0.00110489       0.00027529
Ti       0.21381777       7.97243770       4.19441696       0.00212749      -0.00130401       0.00285484
Ti       3.61636059       0.41863090       4.85873076      -0.00430649      -0.00220040       0.00238719
Ti       1.06912332       5.29352452       4.85654185      -0.00084469      -0.00180179       0.00015333
Ti       2.75395153       7.50738995       5.57530359      -0.00389006      -0.00208094      -0.00080298
Ti       0.21184548       2.63543653       5.59205455      -0.00083373      -0.00278239       0.00110812
Ti       3.61544956       4.84742764       6.28063904      -0.00434882      -0.00323878      -0.00154236
Ti       1.07521293       9.70537838       6.32621809      -0.00442374      -0.00501834       0.00138894
Ti       0.20205920       7.05076040       6.96673292      -0.00190121      -0.00252130       0.00252291
Ti       2.75254475       2.17237745       6.93909097      -0.00256368      -0.00398667      -0.00626966
Ti       1.11149219       4.43170727       7.66355811      -0.00361588       0.00253812      -0.00449099
Ti       3.64869421       9.28773192       7.66424924      -0.00067799      -0.00015391       0.00225691
Ti       0.26933134       1.74498055       8.38779380      -0.00523566      -0.00594131      -0.01009114
Ti       2.79686006       6.63647195       8.35959545      -0.00361893       0.00135655      -0.00411368
Ti       1.02742982       8.72807407       9.10491489      -0.00272159      -0.01233105      -0.00401591
Ti       3.58489757       3.87914881       8.98184444       0.00031544      -0.00576100      -0.00981912
Ti       2.69391294       1.14762750       9.78481080       0.00100332      -0.01611362      -0.00857332
Ti       0.06186289       5.97235461       9.84679506      -0.00244991      -0.00596770      -0.00162030
Ti       3.80555300       8.23510918      10.55068827      -0.00209209      -0.00347399       0.00117339
Ti       1.31959120       3.34848325      10.53338003      -0.00267008       0.00524172       0.00069404
Ti       0.06101619       0.88684130      11.14058375      -0.00622392      -0.01105025       0.00147727
Ti       2.58467423       5.75964019      11.03077747      -0.00493938       0.00279772      -0.00169213
Ti       3.88246270       3.45327857      11.74087771       0.00409438       0.00340031       0.00594101
Ti       1.37106111       8.33378453      11.88547428       0.00481761      -0.00214858       0.00541234
Ti       2.40668977       1.37596576      12.56731655       0.00365671      -0.00161846       0.01318142
Ti       4.80288678       6.20576146      12.58009029       0.00303775       0.00498671       0.00151858
Ti       1.51125667       4.10131365      13.22273452      -0.00017010       0.00742499       0.00363729
Al       4.03804420       8.90370771      13.25321837       0.00037760       0.00535433       0.00181127
Ti       4.94545579       1.82254068      13.87912021       0.00327585       0.00308534       0.00808151
Ti       2.41284064       6.71979006      14.02135575      -0.00070969       0.00730179       0.00080610
Ti       1.48886847       9.33401826      14.62273927      -0.00082044       0.00409401       0.00091918
Ti       3.99766527       4.44152376      14.62912174      -0.00123467      -0.00387200       0.00088702
Ti       4.91285821       7.10319051      15.30083936       0.00259100       0.00614117       0.00049687
Ti       2.30427172       2.25887189      15.31905168       0.00154551       0.00393670       0.00077432
Ti       1.46196319       4.88156312      16.02136995       0.00171544      -0.00271966       0.00019410
Ti       3.99309541       9.73703067      15.97308181       0.00200128       0.00636450      -0.00061640
Ti       2.29849534       7.54369830      16.76681792      -0.00003475       0.00361799       0.00125383
Ti       4.84877905       2.66851497      16.72247947      -0.00170767      -0.00156708      -0.00057519
Ti       4.01038098       5.33232830      17.41210668       0.00266729      -0.00448886      -0.00034649
Ti       1.45642236       0.45338164      17.42158255       0.00098907       0.00291312       0.00060855
Ti       4.86220626       7.99432906      18.12516134       0.00524758       0.00638697       0.00002300
Ti       2.32226437       3.11874128      18.12372591       0.00281010       0.00024190      -0.00292441
Ti       1.42432686       5.74874679      18.81554907      -0.00053454       0.00031800      -0.00358552
Ti       3.96614865       0.88330701      18.79408360       0.00054367       0.00503773      -0.00270240
Ti       2.31088358       8.37426932      19.54690857       0.00351644       0.00394674      -0.00412275
Ti       4.85698714       3.50482569      19.52046235      -0.00016044      -0.00257961      -0.00968800
Ti       1.47654864       1.32794315      20.17891816       0.00106042      -0.00095200      -0.00793340
Ti       4.02047269       6.20225159      20.17720783       0.00083900      -0.00060626      -0.00498736
Ti       4.88380468       8.91519242      20.90197916       0.00232361       0.00289749      -0.00876718
Ti       2.33864463       4.03498326      20.90107138       0.00507931      -0.00250931      -0.01115554
Ti       3.82249830       1.86788478      21.67334300       0.00246019       0.00218600      -0.00761609
Ti       1.27222553       6.73395371      21.68039153       0.00467860       0.00637753      -0.00627336
