100
Lattice="4.4265 -2.555641 0.0 3.767997 6.526363 -0.031456 0.0 0.0 45.781652" Properties=species:S:1:pos:R:3:forces:R:3 job_name=Segregation-1sol-CSL13-Al-Al-63-d-5.77 top_level=Segregation-1sol solute=Al energy=-771.55267214 stress_kbar_3x3="_JSON [[-35.15546608, -2.14396013, 0.40038808], [-2.14396016, -38.47213354, 1.53077404], [0.40038808, 1.53077405, -17.64653045]]" pbc="T T T"
Ti       2.40048235      -1.00096529       0.11036220      -0.00151359       0.00007784      -0.00107131
Ti       5.69256289       1.45015739       0.09776124      -0.00007669      -0.00202666      -0.00098269
Ti       4.96959130      -0.95142466       1.41622972       0.00240720       0.00249783      -0.00655914
Ti       4.46208904       3.69515183       1.40406157       0.00193630       0.00150710      -0.00409652
Ti       7.01807457       3.73042032       2.54827801      -0.00260070      -0.00137383      -0.00185159
Ti       3.73153786       1.27180438       2.56247610       0.00183096      -0.00308052      -0.00068900
Ti       1.60982795      -0.57489982       2.96998842       0.00118320      -0.00249228       0.00236338
Ti       2.04619123       3.51935840       2.94783149      -0.00207809      -0.00050027       0.00288523
Ti       4.74447705       3.45417776       4.19872415       0.00264089      -0.00334077       0.00272548
Ti       4.64761149      -0.84078272       4.21915001      -0.00285461      -0.00087181       0.00037379
Ti       3.33973313       5.66157171       5.14873074      -0.00072612      -0.00389482      -0.00337780
Ti       2.84596704       1.61067028       5.16864541      -0.00149964      -0.00257043      -0.00001231
Ti       2.28782495      -1.10867051       5.84108043      -0.00350322      -0.00145192      -0.00038124
Ti       5.69538148       1.27313187       5.82753213       0.00147707      -0.00409993      -0.00106282
Ti       4.10633912       3.59884995       6.94866763      -0.00623715      -0.00098292      -0.00119234
Ti       5.12287448      -1.34074062       6.96521805       0.00180572      -0.00368208       0.00049112
Ti       6.82176022       3.35266396       7.76299575      -0.00336135      -0.00172516      -0.00586869
Ti       3.54121228       0.87792420       7.77371070      -0.00243483      -0.00105362      -0.00728744
Ti       6.26497239       0.67892486       8.67571355      -0.00344991      -0.00372886      -0.00075178
Ti       5.28546610       5.58725588       8.66892951      -0.00072440      -0.00162891      -0.00044828
Ti       4.72953863       2.91955114       9.63279511      -0.00190529      -0.00150698      -0.00059262
Ti       4.24957156      -1.13911596       9.64940995      -0.00416250      -0.00309364      -0.00172278
Ti       3.03752747       5.20241622      10.42994781      -0.00101073      -0.00136569      -0.00213575
Ti       2.63696560       1.08841295      10.44382658      -0.00234294      -0.00154541      -0.00294072
Ti       5.83703038       4.97981107      11.51609327      -0.00393737      -0.00322557       0.00358440
Ti       5.48844159       0.82433793      11.53632465      -0.00276193      -0.00071428       0.00251266
Ti       0.50276987       0.67007322      12.26126915      -0.00312216      -0.00379365      -0.00114827
Ti       3.77323579       3.14956295      12.25273090      -0.00650750      -0.00127466       0.00040088
Ti       3.14092565       0.52806921      13.17495623      -0.00427888       0.00024449       0.00194136
Ti       6.74655436       2.79636846      13.16134082       0.00171102      -0.00423379      -0.00022484
Ti       5.04424169       5.24409574      14.40107995      -0.00538405       0.00144280       0.00602571
Ti       1.70250057       2.81941886      14.41383136       0.00156161       0.00169678       0.00488023
Ti       4.49535697       2.47625349      14.84057817      -0.00277688      -0.00262893      -0.00146261
Ti       4.00924002      -1.58675667      14.85302655      -0.00438806       0.00107978      -0.00008235
Ti       7.04905175       2.49635520      15.95182393      -0.00356101       0.00439832       0.00199712
Ti       2.75209095       0.62809367      15.97414269       0.00221175       0.00137846       0.00052378
Ti       5.80394235       4.73923077      17.28606399      -0.00003469       0.00012736       0.00318215
Ti       5.31667208       0.66773484      17.30039860      -0.00120534       0.00196145       0.00357461
Ti       3.65080036       2.88388093      17.46067722       0.00052865       0.00502977      -0.00095094
Ti       0.35895712       0.43045695      17.47437295       0.00093997       0.00700221      -0.00045068
Ti       2.85305009       0.53438161      18.76725695      -0.00020516       0.00077158       0.00047281
Ti       6.91545321       2.53644616      18.74930058       0.00102254       0.00276955       0.00274240
Ti       4.97574686       5.20002215      20.16020937       0.00515152       0.00476639       0.00114893
Ti       1.70281508       2.74472433      20.17762758      -0.00219202       0.00702140       0.00000636
Ti       4.45027171       2.40548342      20.12874381       0.00575380      -0.00402200      -0.00299755
Ti       3.96965618      -1.66742799      20.13095522      -0.00045295      -0.00073283       0.00136499
Ti       6.87596959       2.55039010      21.54356612      -0.00253035       0.00234740      -0.00160730
Ti       2.88194038       0.51737881      21.55789922      -0.00143952      -0.00201797      -0.00396994
Ti       3.63075658       2.91330684      22.76357243       0.00002843      -0.00122956       0.00326308
Ti       0.35241641       0.42984921      22.74951280      -0.00565687       0.00040016      -0.00010565
Ti       5.78075743       4.74170044      23.05453480      -0.00033061       0.00004008      -0.00036033
Ti       5.32513850       0.67392822      23.02542216       0.00638509      -0.00120120       0.00460475
Ti       2.63095275       0.68422707      24.35892343       0.00337155       0.00796991       0.00800476
Ti       7.08797300       2.47315044      24.39371134       0.00067645       0.00095379      -0.00230656
Ti       4.04234975      -1.46840186      25.29136415       0.00140132       0.00097346      -0.00001942
Ti       4.46018656       2.50234188      25.36213198      -0.00744379       0.00214661      -0.00422850
Ti       1.67731183       2.86065975      25.95603151       0.00938779      -0.00244350       0.00172326
Ti       5.12730216       5.23752651      25.91509015      -0.00390076       0.00120090       0.00075422
Ti       3.23567242       0.61960705      27.14089974      -0.00265693       0.00693367      -0.00240802
Ti       6.47590337       2.97433779      27.13089813       0.01089700       0.00471281       0.00336428
Ti       4.81464640      -1.76976386      27.91317505      -0.00670405       0.00255042       0.00307157
Ti       3.75345102       3.46522422      27.87334077      -0.00129586      -0.00301573       0.00015239
Ti       5.53413536       0.93830092      28.79375671      -0.00025818      -0.00079004       0.00380621
Al       5.80481870       5.15058467      28.80764341      -0.00491574      -0.00129613      -0.00554041
Ti       7.47746963       2.92565140      29.77575197      -0.00435293       0.00761430      -0.00219995
Ti       2.47489189       1.25611288      29.78538962      -0.00257946      -0.00028648       0.00208194
Ti       4.66672454       3.09317524      30.51035093       0.00370028      -0.00483034       0.00147821
Ti       4.24708128      -0.85774719      30.53883385      -0.00188965       0.00171948      -0.00568234
Ti       6.31625373       0.84197829      31.63599142      -0.00009363      -0.00623564       0.00146939
Ti       1.56543754      -0.79628486      31.67429764       0.00271734      -0.00586460      -0.00194679
Ti       3.58222600       1.11923241      32.34463350       0.00030740      -0.00166230       0.00303985
Ti       6.82099948       3.50789467      32.40832171      -0.00432406      -0.00278357      -0.00123769
Ti       4.20930766       3.70666747      33.26932188       0.00453468      -0.00361577       0.00670510
Ti       5.01758229      -1.12360109      33.25402539       0.00446792      -0.00356134      -0.00249566
Ti       2.32718927      -1.03709653      34.52015939      -0.00235184       0.00028780      -0.00509242
Ti       5.67212328       1.36373493      34.53196456      -0.00363406      -0.00206580       0.00136012
Ti       3.36462959       5.79307465      34.96365750       0.00013009      -0.00395346      -0.00084376
Ti       2.85456365       1.71350150      34.96028697       0.00004537       0.00396684      -0.00045749
Ti       4.62928318       3.55878339      36.05494850      -0.00324487       0.00303120       0.00161500
Ti       4.74526921      -0.84777679      36.08047772       0.00366916      -0.00299305      -0.00318954
Ti       2.05408840       3.52467261      37.37752434       0.00492091       0.00002127      -0.00302984
Ti       1.57795072      -0.54828970      37.39247283       0.00478360       0.00383796       0.00011383
Ti       7.01049713       3.75228386      37.58440366       0.00259374      -0.00465016       0.00175182
Ti       3.71917788       1.30768657      37.59262727       0.00194762       0.00029815      -0.00409888
Ti       4.50277628       3.66976614      38.85409155      -0.00098974       0.00303033       0.00184539
Ti       4.89949153      -0.91114505      38.87442911       0.00023382       0.00060611       0.00349799
Ti       5.68602831       1.44914763      40.21558956      -0.00025601      -0.00664123       0.00305619
Ti       2.38419117      -0.99474208      40.22786329       0.00335753      -0.00353548       0.00064091
Ti       3.38811595       5.86515376      40.27098952       0.00446727       0.00221307       0.00421324
Ti       2.93190991       1.78080251      40.28674068       0.00247462       0.00562398       0.00180108
Ti       4.54188837       3.65593227      41.62676791       0.00024040      -0.00127074      -0.00787956
Ti       4.86927085      -0.88399164      41.64421061       0.00305207       0.00272579      -0.00761152
Ti       2.06009422       3.54696392      43.04238196       0.00407634       0.00530434      -0.00141334
Ti       1.59404149      -0.53555153      43.05822324       0.00576130       0.00349239       0.00144732
Ti       7.03431036       3.76569593      42.98067705       0.00570843      -0.00030166       0.00193983
Ti       3.72331735       1.32702565      42.99623144      -0.00079311      -0.00021523      -0.00410036
Ti       4.57683000       3.63815421      44.39585742       0.00158300       0.00268870       0.00925163
Ti       4.84730463      -0.86926777      44.41229207       0.00473571       0.00229899       0.00833630
Ti       3.40506581       5.85717390      45.67719296       0.00625995       0.00505958      -0.00312091
Ti       2.93667503       1.77984068      45.69524241       0.00285342       0.00528056      -0.00229885
