64
Lattice="5.871999 0.0 0.0 0.0 6.890708 0.0 0.0 0.0 27.401158" Properties=species:S:1:pos:R:3:forces:R:3 job_name=Segregation-1sol-T1m-V-V-33-d-0.00 top_level=Segregation-1sol solute=V energy=-496.08348405 stress_kbar_3x3="_JSON [[-11.46396771, 0.00047147, 0.00014849], [0.00047147, -13.91161133, 0.00050789], [0.00014846, 0.0005079, -21.66101692]]" pbc="T T T"
Ti       2.93604354       0.10241405       0.00008881      -0.00004720       0.00118328      -0.00011803
Ti       2.93604754       2.93838955       0.00010991      -0.00003294      -0.00037833      -0.00016400
Ti      -0.00001913       0.10279265       0.00009826       0.00009133      -0.00013338      -0.00013364
Ti       0.00003391       2.93721221       0.00010007       0.00001317       0.00210218      -0.00012317
Ti       4.40430936       5.02897398       1.41457872       0.00000507       0.00246467       0.00925630
Ti       1.46771424       5.02897746       1.41456640       0.00009171       0.00243088       0.00941495
Ti       4.40404132       1.31920273       2.03317075      -0.00044501      -0.00147411       0.00794975
Ti       1.46799482       1.31919582       2.03310328       0.00048943      -0.00132554       0.00858506
Ti       2.93604518       3.41409377       3.21367917      -0.00023256      -0.00586281       0.00797316
Ti      -0.00000707       3.41270806       3.21730102       0.00022586       0.00161475       0.00019738
Ti       2.93604654       6.22998818       3.62891696      -0.00010418       0.00315978      -0.00218797
Ti       0.00002610       6.22918993       3.62584674       0.00004300       0.00146874       0.00904834
Ti       1.46964697       1.49798260       4.85046934      -0.00472357      -0.00305267      -0.00038022
Ti       4.40241710       1.49798962       4.85040934       0.00466983      -0.00316957       0.00032279
Ti       1.46887712       4.43911685       5.45506940      -0.00479375       0.00779056       0.00289242
Ti       4.40317147       4.43908299       5.45505269       0.00482175       0.00806107       0.00321790
Ti       2.93601838       6.60009806       6.61412049       0.00011020       0.01090221       0.00559726
Ti       0.00003465       6.59969604       6.61163070      -0.00023822       0.00431171       0.00334654
Ti       2.93602022       2.52825442       7.12499838       0.00007975      -0.00496291       0.00514503
Ti       0.00002191       2.53158690       7.12370236      -0.00006534       0.00154859      -0.00286302
Ti       4.40247448       4.69504456       8.29703713      -0.00133960       0.00024387      -0.00357403
Ti       1.46954022       4.69501806       8.29699987       0.00134974       0.00043721      -0.00323701
Ti       4.40612873       0.72691337       8.88914088      -0.00001461      -0.00547656      -0.00262017
Ti       1.46590130       0.72691600       8.88912201      -0.00000778      -0.00548153      -0.00242211
Ti      -0.00000776       2.89727445      10.08306307       0.00004162       0.00015127      -0.00037548
Ti       2.93600055       2.87803563      10.10672427      -0.00002415       0.00420332       0.01700793
Ti      -0.00001499       5.71558206      10.55626594       0.00014565      -0.00590475      -0.00233775
Ti       2.93601000       5.71563402      10.53058605      -0.00012416      -0.00638221       0.00308433
Ti       1.40955622       0.94117534      11.73808345       0.00798803      -0.00261983       0.00130601
Ti       4.46242712       0.94117418      11.73806478      -0.00802847      -0.00256120       0.00147024
Ti       1.44386129       4.02494085      12.29616589      -0.01219392       0.00423999       0.00001032
Ti       4.42811509       4.02493216      12.29615384       0.01231002       0.00436499       0.00019383
Ti       2.93599948       2.07032067      13.70080970      -0.00000974      -0.01248198      -0.00077329
V        5.87197263       2.18799147      13.70081905       0.00007932      -0.00951753      -0.00073025
Ti       2.93599099       6.09217046      13.70073462      -0.00001516      -0.00121759      -0.00055916
Ti       5.87198059       6.17581573      13.70072931      -0.00000180       0.00227204      -0.00051970
Ti       4.42814467       4.02500215      15.10516528       0.01226349       0.00426263      -0.00085157
Ti       1.44385344       4.02501211      15.10516950      -0.01225974       0.00420122      -0.00084088
Ti       4.46248996       0.94116014      15.66332987      -0.00826833      -0.00274631      -0.00204092
Ti       1.40950011       0.94114793      15.66331941       0.00828316      -0.00267547      -0.00205160
Ti       2.93602543       5.71568958      16.87050780      -0.00007196      -0.00639965      -0.00277676
Ti       0.00000927       5.71558483      16.84485131       0.00000434      -0.00593244       0.00284328
Ti       2.93600403       2.87799292      17.29437316      -0.00000229       0.00432921      -0.01649880
Ti      -0.00000438       2.89725598      17.31805097      -0.00000915       0.00037118       0.00082933
Ti       4.40613327       0.72694162      18.51194579      -0.00002281      -0.00542420       0.00292051
Ti       1.46588634       0.72696785      18.51193650       0.00004550      -0.00556413       0.00302254
Ti       4.40247994       4.69503722      19.10395941      -0.00128580       0.00039247       0.00392789
Ti       1.46955172       4.69503208      19.10392716       0.00130139       0.00036307       0.00423646
Ti       0.00002023       2.53163686      20.27722073       0.00011020       0.00143625       0.00389675
Ti       2.93604843       2.52832059      20.27593620      -0.00013858      -0.00508782      -0.00459436
Ti      -0.00001231       6.59972475      20.78928392       0.00022457       0.00436344      -0.00248493
Ti       2.93603014       6.60009141      20.78679380      -0.00017467       0.01112691      -0.00495708
Ti       1.46887077       4.43915310      21.94591983      -0.00479622       0.00797362      -0.00288282
Ti       4.40318647       4.43915317      21.94588427       0.00479485       0.00783665      -0.00245315
Ti       1.46963899       1.49803600      22.55058449      -0.00466257      -0.00312882       0.00001502
Ti       4.40242511       1.49803692      22.55053094       0.00468490      -0.00307137       0.00053963
Ti       2.93604651       6.23004861      23.77220617      -0.00002903       0.00310583       0.00210863
Ti       0.00004512       6.22923292      23.77529518      -0.00001155       0.00144568      -0.00925935
Ti       2.93601704       3.41418442      24.18746374       0.00008564      -0.00596874      -0.00824332
Ti       0.00003746       3.41278127      24.18384693      -0.00020686       0.00165541      -0.00046686
Ti       4.40404638       1.31924158      25.36810669      -0.00045471      -0.00132577      -0.00871231
Ti       1.46799706       1.31925906      25.36806616       0.00049549      -0.00154186      -0.00808906
Ti       4.40434457       5.02899279      25.98677147      -0.00018044       0.00248083      -0.01000210
Ti       1.46772460       5.02898989      25.98678066       0.00016789       0.00257356      -0.01003467
