52
Lattice="5.088765 0.0 0.0 0.0 5.495746 0.0 0.0 0.0 32.722931" Properties=species:S:1:pos:R:3:forces:R:3 job_name=Segregation-1sol-C1-Al-Al-29-d-2.59 top_level=Segregation-1sol solute=Al energy=-399.17964407 stress_kbar_3x3="_JSON [[-37.89440309, -0.17202719, -0.61825524], [-0.1720272, -28.1858957, -1.78386518], [-0.61825524, -1.7838652, -21.07379248]]" pbc="T T T"
Ti       2.61827459       0.79482802       0.00840868       0.00078545       0.00236479       0.00029647
Ti       0.02301999       1.60573749       1.38061147      -0.00117928       0.00019183       0.00200743
Ti       0.80378872       4.35325876       1.37681836       0.00080636      -0.00012320       0.00173299
Ti       2.56826476       2.36081025       2.59296117       0.00101778       0.00092415       0.00176873
Ti       3.36655047       5.10884148       2.59803303      -0.00013098       0.00050224       0.00208477
Ti       0.81047193       0.38994482       3.83658982      -0.00076953       0.00167029       0.00137512
Ti       0.03491411       3.13682053       3.84444540       0.00097264       0.00104565       0.00133444
Ti       3.36314469       1.18776427       5.08427983       0.00061545       0.00020033      -0.00042850
Ti       2.56134452       3.93590308       5.08729289      -0.00055603       0.00042103      -0.00020071
Ti       0.00940770       4.71272102       6.32746073       0.00004059       0.00131798      -0.00363263
Ti       0.83467231       1.96191226       6.33387237       0.00042278       0.00034287      -0.00283042
Ti       3.37257857       2.74325693       7.56970824       0.00006680       0.00183735      -0.00249908
Ti       2.56215429       5.49267521       7.58155920       0.00092324       0.00132421      -0.00187138
Ti       0.81555351       3.54795820       8.82235662       0.00085622       0.00060857       0.00094398
Ti       0.01351049       0.80460534       8.83131813       0.00079750      -0.00046936       0.00145924
Ti       2.55693802       1.60089801      10.06970010       0.00054197       0.00114618       0.00052555
Ti       3.37617513       4.33934892      10.08104281       0.00038301       0.00009534       0.00171362
Ti       0.83744910       5.11221836      11.30667167       0.00173926       0.00166589      -0.00354133
Ti       0.02635019       2.37074195      11.32822843       0.00052670       0.00190311      -0.00021410
Ti       3.34953577       0.41650173      12.54158007      -0.00068769       0.00060815      -0.00136140
Ti       2.57501579       3.17265908      12.57421859      -0.00069807      -0.00094048      -0.00481462
Ti       0.04127283       3.97037347      13.80035399       0.00253010       0.00271183      -0.00466956
Ti       0.81309900       1.20353967      13.82475171       0.00181181      -0.00000090      -0.00441718
Ti       2.57981269       4.77994064      15.04567414      -0.00178703       0.00333005      -0.00479732
Ti       3.42489152       2.01348989      15.00301550      -0.00216551       0.00008550      -0.00660756
Ti       0.81580407       2.71626460      16.32985357       0.00431180      -0.00021470      -0.00192259
Ti       0.08974965       0.01126625      16.43273550       0.00288495      -0.00168924      -0.00260097
Ti       3.35438969       1.83129368      17.72098211      -0.00171367      -0.00239834       0.00268429
Ti       2.59188894       4.59362366      17.75538522      -0.00300332      -0.00186627       0.00006975
Al       0.05770950       3.87535918      18.88385745      -0.00867348      -0.00479504       0.00131091
Ti       0.89442465       1.13600398      18.97372717       0.00169987      -0.00386220       0.00484137
Ti       3.44373036       0.34083280      20.16157233       0.00082592       0.00080258       0.00470131
Ti       2.62631856       3.13251961      20.15693538      -0.00405721      -0.00004058       0.00896037
Ti       0.82291069       5.06457949      21.38279045      -0.00061300       0.00027832       0.00201060
Ti       0.00695439       2.32681628      21.38642743      -0.00079709      -0.00485969       0.00057919
Ti       2.53237706       1.55117808      22.61768761       0.00159088      -0.00171487       0.00004086
Ti       3.35791493       4.29321346      22.68562030      -0.00044574       0.00267234       0.00022802
Ti       0.01293779       0.77853497      23.87000674       0.00023772       0.00073168       0.00090894
Ti       0.82425059       3.52544859      23.89379207       0.00029200      -0.00018361       0.00304220
Ti       3.35370825       2.72550503      25.13586544       0.00075431       0.00167906       0.00060023
Ti       2.54355772       5.48751652      25.14540947       0.00044245      -0.00354347       0.00049536
Ti       0.80696791       1.95058427      26.38680253       0.00106674       0.00023215       0.00318402
Ti       5.07636724       4.70442508      26.38131504       0.00047927      -0.00304356      -0.00051945
Ti       2.54573858       3.92600210      27.62681882       0.00006953       0.00122631       0.00284659
Ti       3.35176325       1.17688144      27.63709288      -0.00072986      -0.00128791       0.00183237
Ti       0.79584763       0.38566521      28.87074088      -0.00044828      -0.00025523      -0.00017464
Ti       0.01769586       3.13578713      28.87975869      -0.00057001       0.00130283       0.00010632
Ti       2.55218563       2.35814983      30.12192912       0.00115837      -0.00168267      -0.00099363
Ti       3.34603976       5.10625259      30.12242150      -0.00029461       0.00103885      -0.00108154
Ti       0.80653964       4.35101424      31.33858716       0.00141266      -0.00104560      -0.00179494
Ti       0.02393459       1.60123696      31.34039445      -0.00147892      -0.00087360      -0.00264895
Ti       3.30704155       3.54194643      32.70674374      -0.00126481       0.00062910      -0.00006254
