64
Lattice="5.088765 0.0 0.0 0.0 9.739025 0.0 0.0 0.0 22.303587" Properties=species:S:1:pos:R:3:forces:R:3 job_name=Segregation-1sol-T2-Al-Al-48-d-5.58 top_level=Segregation-1sol solute=Al energy=-492.11067961 stress_kbar_3x3="_JSON [[-1.11031771, 0.00450748, 0.00541823], [0.00450747, -15.36201467, 6.63727263], [0.00541821, 6.63727264, -15.87506347]]" pbc="T T T"
Ti       2.59676410       9.30894697       0.09158853       0.00132630       0.00497129      -0.00724992
Ti       0.05712496       4.44546834       0.10762868      -0.00311642       0.00482714      -0.01205722
Ti       1.32892783       2.00945869       0.57095752      -0.00046417       0.00203902      -0.00594672
Ti       3.88354893       6.88635320       0.58083489       0.00077600       0.00222336      -0.00506169
Ti       2.62915176       4.27907844       1.29559696       0.00387227      -0.00079097       0.00232096
Ti       0.07691297       9.15853964       1.29995893       0.00307878      -0.00065344       0.00368323
Ti       1.00175981       6.34002715       2.14721600      -0.00194463      -0.00164545       0.00264485
Ti       3.53436745       1.46958620       2.13884923      -0.00315103       0.00024315       0.00635830
Ti       0.29699471       3.53195714       2.76718243      -0.00585210      -0.00120331       0.00023640
Ti       2.84008332       8.40794291       2.77133959      -0.00378174      -0.00402954      -0.00377684
Ti       1.12033981       0.84772494       3.50538357      -0.00260494       0.00007584       0.00498427
Ti       3.66948759       5.71477847       3.50245814      -0.00466052      -0.00018761       0.00258577
Ti       2.75568813       3.11975274       4.21422422      -0.01159028       0.00149621      -0.00008345
Ti       0.21010455       7.98717849       4.21659581      -0.00791169       0.00397536      -0.00249497
Ti       3.62590454       0.44253280       4.84255535      -0.00802427       0.00222260      -0.00499308
Ti       1.08118776       5.31001604       4.84302423      -0.01006511       0.00158738      -0.00413204
Ti       2.75336555       7.52375573       5.57579966      -0.00348703      -0.00024868      -0.00069848
Ti       0.21112853       2.65426630       5.57570641      -0.00327388       0.00011533      -0.00006280
Ti       3.62591851       4.86642338       6.30904917      -0.00771324      -0.00199569       0.00540697
Ti       1.08121568      -0.00094814       6.30847925      -0.00945614      -0.00239193       0.00431070
Ti       0.21033739       7.06088873       6.93477379      -0.00920990      -0.00477711       0.00290771
Ti       2.75562052       2.18920168       6.93743019      -0.01160835      -0.00257380      -0.00028218
Ti       1.12028264       4.46115199       7.64583896      -0.00232033      -0.00035331      -0.00439049
Ti       3.66944928       9.33303768       7.64895544      -0.00471627      -0.00048401      -0.00189455
Ti       0.29680327       1.77683129       8.38440405      -0.00584677       0.00214421      -0.00024152
Ti       2.84003684       6.63987122       8.38038867      -0.00344384       0.00440584       0.00369842
Ti       1.00154269       8.70789714       9.00439375      -0.00235367       0.00068527      -0.00355611
Ti       3.53394723       3.83914309       9.01285150      -0.00207240      -0.00034084      -0.00639301
Ti       2.62916914       1.02958814       9.85584416       0.00474252      -0.00045136      -0.00161869
Ti       0.07726287       5.88909048       9.85142747       0.00303810       0.00025346      -0.00436483
Ti       3.88349358       8.16075496      10.57088840       0.00002478      -0.00232997       0.00421606
Ti       1.32890970       3.29873293      10.58065648      -0.00124965      -0.00285028       0.00504057
Ti       0.05689600       0.86242757      11.04391567      -0.00290777      -0.00404664       0.01204995
Ti       2.59667572       5.73791520      11.06021497       0.00159811      -0.00493346       0.00771173
Ti       3.87273132       3.43887271      11.74771389       0.00670918      -0.00673794      -0.00273163
Ti       1.35268495       8.31592248      11.75207019       0.00069002      -0.00770984      -0.00364808
Ti       2.28476711       1.30556233      12.62476871       0.00318125      -0.00546013       0.00226548
Ti       4.85765949       6.21171285      12.61612317       0.00709303      -0.00837950       0.00183387
Ti       1.52768002       4.06269171      13.24844363       0.00466558      -0.00886012       0.00058244
Ti       4.08726169       8.95228835      13.22788475       0.00726087      -0.01028974       0.00229265
Ti       4.90938516       1.87362626      13.94065919       0.00358803      -0.00127978       0.00069849
Ti       2.38297652       6.75773774      13.95615959       0.00228003      -0.00259459      -0.00285525
Ti       1.36763272       9.31267880      14.70364027       0.00297323      -0.00326695      -0.00016426
Ti       3.97884036       4.43184153      14.64211027       0.00040675      -0.00638929      -0.00503880
Ti       4.82398094       7.08077227      15.36265333       0.00307885      -0.00187424      -0.00137114
Ti       2.30351490       2.20697573      15.33674060       0.00485702      -0.00344117       0.00448314
Ti       1.45549204       4.87399941      16.01100662       0.00159386       0.00066531      -0.00391706
Ti       3.92199066      -0.00368407      15.97986341       0.00325698      -0.00062616      -0.00271237
Al       2.27207457       7.52187008      16.72743742       0.00984933       0.00077237      -0.00003111
Ti       4.84645642       2.65322827      16.72737591       0.00132789       0.00007290       0.00043254
Ti       3.92214099       5.30976583      17.47571849       0.00317515       0.00095944       0.00253870
Ti       1.45573982       0.43192797      17.44436067       0.00147142      -0.00035697       0.00386822
Ti       4.82390245       7.96462455      18.09254926       0.00316938       0.00185697       0.00107606
Ti       2.30368013       3.09940802      18.11844362       0.00413523       0.00394947      -0.00519708
Ti       1.36778366       5.73238691      18.75168583       0.00329634       0.00449661       0.00020503
Ti       3.97900893       0.87495689      18.81301261       0.00086374       0.00627356       0.00475429
Ti       2.38308554       8.28768552      19.49859476       0.00286742       0.00289443       0.00326944
Ti       4.90987922       3.43278374      19.51444775       0.00366636       0.00146708      -0.00019166
Ti       1.52834866       1.24393287      20.20704958       0.00448588       0.00867940      -0.00070866
Ti       4.08789786       6.09344895      20.22741049       0.00655182       0.01056084      -0.00172468
Ti       4.85721266       8.83433732      20.83866729       0.00693373       0.01031002      -0.00091790
Ti       2.28506998       4.00147489      20.83033580       0.00349098       0.00552764      -0.00217804
Ti       3.87327204       1.86861611      21.70765757       0.00643940       0.00609819       0.00253358
Ti       1.35301807       6.73081716      21.70306315       0.00101050       0.00770416       0.00369650
