64
Lattice="5.088765 0.0 0.0 0.0 9.739025 0.0 0.0 0.0 22.303587" Properties=species:S:1:pos:R:3:forces:R:3 job_name=Segregation-1sol-T2-V-V-42-d-3.50 top_level=Segregation-1sol solute=V energy=-496.00030106 stress_kbar_3x3="_JSON [[-0.08013363, 5.41130469, 0.0805862], [5.41130468, -18.46602237, 8.66491769], [0.08058619, 8.66491768, -17.8693291]]" pbc="T T T"
Ti       2.58328250       9.31451114       0.05951061       0.00314044       0.00187381      -0.00564333
Ti       0.03925159       4.44541512       0.05688803       0.00516781       0.00271706       0.00127778
Ti       1.31428435       1.99240638       0.58173014       0.00158421       0.00659140      -0.00596390
Ti       3.86403189       6.86212202       0.58886135       0.00065832       0.01009657      -0.00331413
Ti       2.64121513       4.24301936       1.32416601       0.00788076       0.00162348       0.00088844
Ti       0.09604815       9.11498840       1.32390073       0.00887704      -0.00335481       0.00588200
Ti       0.99509821       6.30022170       2.14128172       0.00767494      -0.00225781      -0.00743607
Ti       3.53799565       1.43535583       2.13502871       0.00442548      -0.00709507      -0.00048446
Ti       0.25268030       3.53135126       2.75422405       0.00224760      -0.00061766      -0.00977174
Ti       2.79602695       8.39861989       2.75629857       0.00591874      -0.00141355      -0.00384578
Ti       1.10530925       0.86240516       3.50728391       0.00136335      -0.00034859      -0.00429378
Ti       3.65124607       5.72855120       3.51480730      -0.00346504       0.00407328      -0.00111400
Ti       2.75331102       3.12231587       4.18949102       0.00088496       0.00027807      -0.00152767
Ti       0.20674538       7.99083274       4.18637831      -0.00041073      -0.00354940      -0.00537914
Ti       3.59986218       0.42146155       4.83680449      -0.00104912      -0.00087224       0.00192239
Ti       1.05457653       5.28849830       4.84313696       0.00129210      -0.00349440       0.00049207
Ti       2.73709100       7.49788954       5.58476088      -0.00159614       0.00662749       0.00411938
Ti       0.19292450       2.62968118       5.58463602      -0.00564198       0.00059097      -0.00238946
Ti       3.61283786       4.83045643       6.33395727      -0.00047097      -0.00058866       0.01175796
Ti       1.06587543       9.70614140       6.31699261       0.00134143      -0.00346069       0.01301800
Ti       0.17036446       7.04684784       6.90021692      -0.00181965      -0.00353175       0.00450330
Ti       2.71597420       2.17565484       6.90174244       0.00020074       0.00567996       0.00457007
Ti       1.11428651       4.45290257       7.65149637       0.00220242      -0.00299487       0.00685229
Ti       3.66542544       9.33426977       7.64820800      -0.00302504      -0.00599103       0.00975482
Ti       0.31925369       1.78683099       8.37387356      -0.00345904      -0.00062658       0.00174143
Ti       2.85736274       6.64792626       8.36878283      -0.00663923      -0.00385572       0.00460366
Ti       0.92936144       8.62278906       8.99447361      -0.00021568      -0.00223248       0.00932938
Ti       3.45157287       3.72597883       9.03265499      -0.01121540      -0.00329121      -0.00113056
Ti       2.58319559       0.95143618       9.89305083      -0.00416705      -0.00519103       0.01101991
Ti       0.04084548       5.80745125       9.86195450      -0.01459044      -0.00066948      -0.00049567
Ti       3.83986329       8.06189152      10.65475967      -0.01160968      -0.00847420      -0.00466619
Ti       1.26840737       3.20093150      10.69171432      -0.00871629      -0.00286166       0.00180254
Ti       0.02570823       0.75400726      10.96792482      -0.00607144      -0.00617715       0.00020947
Ti       2.56736623       5.62080067      10.98616987      -0.00521183      -0.00854215      -0.00669817
Ti       3.79578990       3.28255364      11.77404212       0.00158058      -0.00330758       0.00290208
Ti       1.29916768       8.18401849      11.71670155      -0.00427673       0.00245972       0.00091208
Ti       2.15062905       1.09337153      12.65869052      -0.00892510      -0.00535361      -0.00238650
Ti       4.72524917       6.06852160      12.58041301      -0.01065605      -0.00866670      -0.00085478
Ti       1.63839979       4.21207330      13.28516277      -0.00040050       0.00745483       0.00652723
Ti       4.28452906       9.07132724      13.27733049       0.00157578       0.00641350       0.00148220
Ti       5.02439453       1.98524929      14.00330135       0.00517988      -0.00596315      -0.00287852
Ti       2.44140129       6.98163289      13.98949597       0.00045532      -0.00434316      -0.00183625
V        1.34691452       9.44342124      14.84669876      -0.01134240      -0.00425037      -0.00215180
Ti       3.94294795       4.55831213      14.74836812      -0.00045831      -0.00648204      -0.00101690
Ti       4.98075307       7.13238674      15.22306489      -0.00398938      -0.01079114      -0.00088907
Ti       2.43226132       2.25936495      15.22172311       0.00060559      -0.00208235      -0.00184649
Ti       1.44726807       4.88771725      15.97093492      -0.00427862       0.00455594      -0.00266420
Ti       3.93968254       9.71611465      15.94316717       0.00429371      -0.00088581       0.00007978
Ti       2.29439699       7.54029311      16.71757476       0.00521823      -0.01072850      -0.00505032
Ti       4.84354982       2.64460252      16.73454266       0.00219162       0.00796632      -0.00453278
Ti       4.07675331       5.38690311      17.44056214      -0.00120839       0.00459927      -0.00785703
Ti       1.50938384       0.53524815      17.39630236       0.00091766       0.01131827       0.00619452
Ti       4.91198545       8.04271538      18.11591370      -0.00310866       0.00483289      -0.00901109
Ti       2.37170919       3.17021462      18.11732349       0.00458721       0.00582982      -0.00556928
Ti       1.43995875       5.79068110      18.82707353       0.01118147      -0.00002782      -0.00400357
Ti       3.97602987       0.90645696      18.80984205       0.01009016       0.00373400      -0.00147199
Ti       2.37448899       8.37567756      19.48653960      -0.00173158       0.00663449      -0.00029042
Ti       4.92119033       3.49231416      19.49276775       0.00127952       0.00895181      -0.00194519
Ti       1.50611327       1.28879528      20.18375926       0.00555197       0.00450276      -0.00349439
Ti       4.05338356       6.16584308      20.19026989       0.00795123       0.00547691      -0.00076060
Ti       4.85841198       8.88663711      20.86039827       0.01334099       0.00418228       0.00441010
Ti       2.31945288       4.01845301      20.86245088       0.00793526       0.00131057       0.00535571
Ti       3.86923604       1.88474009      21.68857339      -0.00166598       0.00521345       0.00000995
Ti       1.33145862       6.75808153      21.69390993       0.00261995       0.00878547       0.00304669
