52
Lattice="5.088765 0.0 0.0 0.0 5.495746 0.0 0.0 0.0 32.722931" Properties=species:S:1:pos:R:3:forces:R:3 job_name=Segregation-1sol-C1-Al-Al-36-d-6.31 top_level=Segregation-1sol solute=Al energy=-399.02132492 stress_kbar_3x3="_JSON [[-38.2342701, 0.18122053, -0.17312301], [0.18122054, -29.56674185, -0.16673378], [-0.17312302, -0.16673378, -18.26903259]]" pbc="T T T"
Ti       2.63196388       0.79654570      32.71298064      -0.00408093      -0.00141892       0.01076356
Ti       0.03755227       1.60055291       1.36701986      -0.00327497       0.00097357       0.01061960
Ti       0.82852994       4.34755988       1.36364742      -0.00278603      -0.00008076       0.00598136
Ti       2.57394553       2.35856847       2.58130365       0.00048953      -0.00002381       0.00284830
Ti       3.36897665       5.10550554       2.57737275       0.00281600      -0.00170231       0.00516326
Ti       0.81286761       0.38838244       3.82562746       0.00352012       0.00053822      -0.00091087
Ti       0.03654140       3.13740327       3.82251062       0.00422424      -0.00069734       0.00235447
Ti       3.37322235       1.18343639       5.06921651       0.00280369      -0.00093953       0.00054542
Ti       2.56498703       3.93179745       5.06644424       0.00325833      -0.00015962       0.00210510
Ti       0.01302492       4.70309878       6.31058571       0.00357348       0.00018570       0.00030860
Ti       0.83609507       1.95452212       6.31105225       0.00402501      -0.00045846      -0.00022649
Ti       3.37415884       2.73798471       7.55604353       0.00249813      -0.00067074       0.00129923
Ti       2.56405975       5.48580405       7.55887813       0.00364779      -0.00099493       0.00028512
Ti       0.83088728       3.53789864       8.80501405       0.00330992       0.00020627       0.00288309
Ti       0.01837022       0.79045710       8.80644523       0.00365703       0.00034274      -0.00008104
Ti       2.56054073       1.56968160      10.05047397       0.00301775       0.00006740      -0.00156283
Ti       3.38322919       4.31810341      10.05357221       0.00512220       0.00433792      -0.00306092
Ti       0.83362080       5.09318394      11.29449076       0.00141109      -0.00039621      -0.00342862
Ti       0.03018503       2.34492286      11.29529221       0.00103610       0.00007823      -0.00866323
Ti       3.36666274       0.39168687      12.53741686      -0.00015671      -0.00204663       0.00024790
Ti       2.58976437       3.13785365      12.54061374       0.00214478      -0.00110876      -0.00314639
Ti       0.04096857       3.91605657      13.78114683      -0.00433304      -0.00191222      -0.00667276
Ti       0.83107615       1.16924761      13.78310329      -0.00036424       0.00505382      -0.00734829
Ti       2.58888828       4.67438859      14.99055823      -0.00712756      -0.00846758      -0.00787572
Ti       3.37026998       1.92870242      15.00614867      -0.00546652      -0.00562052       0.00209785
Ti       0.78492882       2.72592670      16.38580431      -0.00592731       0.00221715       0.00177377
Ti       0.09683000       5.47797651      16.35416127      -0.00603786       0.00051577      -0.00467426
Ti       3.36968550       1.90272015      17.78463110       0.00268655      -0.00152432       0.00789270
Ti       2.59833306       4.65359173      17.73757594      -0.00211934       0.00694934      -0.00280743
Ti       0.05795281       3.91806045      18.94828094       0.00455187       0.00463076      -0.00195824
Ti       0.83473721       1.15673990      18.96394640       0.00220497       0.00756299      -0.00006036
Ti       3.35896784       0.36276993      20.22927497       0.00724871      -0.00874053       0.00616632
Ti       2.51611380       3.12789445      20.23867144       0.00011540      -0.00313079       0.00445300
Ti       0.78241797       5.14896066      21.49085847      -0.01002414      -0.00093113      -0.00237791
Ti       5.01710052       2.42319202      21.35634543      -0.01096118       0.01471162      -0.00134418
Ti       2.62408134       1.57805304      22.67895823       0.00168102       0.00552634       0.00094248
Al       3.32356946       4.31872133      22.68268485       0.00370135      -0.00806284      -0.00640881
Ti       4.99472671       0.71899678      24.00858574      -0.00324742      -0.01297703      -0.00377819
Ti       0.77912049       3.47633812      23.87254034      -0.00140636      -0.00219662       0.00578735
Ti       3.37642971       2.77514559      25.14656677       0.00535372       0.01086040      -0.00314144
Ti       2.47680457       0.02372285      25.11276874      -0.00022514      -0.00029786       0.00179942
Ti       0.84826650       1.97509611      26.40531261       0.00465115      -0.00214353      -0.00332730
Ti       0.05977949       4.70991399      26.41279894       0.01293494      -0.00486856       0.00005750
Ti       2.58518739       3.92917881      27.67084871      -0.00927919      -0.00311227      -0.00480889
Ti       3.38047100       1.17481339      27.59114193      -0.00125374      -0.00031224      -0.00230333
Ti       0.82013768       0.40976553      28.87897369       0.00082651      -0.00014390      -0.00006838
Ti       0.03108469       3.14431840      28.88921593       0.00175021       0.00185551       0.00054811
Ti       2.59211953       2.36463255      30.10328753       0.00126521      -0.00070054       0.00408082
Ti       3.38577098       5.12357399      30.12355603      -0.00382711       0.00209680      -0.00032811
Ti       0.84009086       4.35959922      31.32828459      -0.00742767       0.00241426       0.00081123
Ti       0.06136280       1.61169462      31.34161036      -0.00576871       0.00554773       0.00233741
Ti       3.32924487       3.54990901      32.71549294      -0.00443163      -0.00083206      -0.00378899
