64
Lattice="5.088765 0.0 0.0 0.0 9.739025 0.0 0.0 0.0 22.303587" Properties=species:S:1:pos:R:3:forces:R:3 job_name=Segregation-1sol-T2-V-V-36-d-1.39 top_level=Segregation-1sol solute=V energy=-496.07779412 stress_kbar_3x3="_JSON [[-3.72954863, -1.19203913, 0.02045403], [-1.19203912, -19.6030872, 0.22879364], [0.02045401, 0.22879362, -20.53965659]]" pbc="T T T"
Ti       2.54328352       9.25520614      -0.00068556      -0.00254146       0.00276916      -0.00009243
Ti       0.00167824       4.38508443      22.30254448      -0.00079746       0.00133879      -0.00098307
Ti       1.26838063       1.87843239       0.61207378      -0.00243607       0.00099391      -0.00343557
Ti       3.81560764       6.74710931       0.61647581      -0.00772190       0.00719420      -0.00335940
Ti       2.71016172       4.07107645       1.39338382      -0.00508027      -0.00141477      -0.00062869
Ti       0.16710138       8.94226199       1.39109545       0.00029522       0.00774668      -0.00701428
Ti       1.04186731       6.21783330       2.11967462      -0.00147154       0.00084115      -0.00264791
Ti       3.58228075       1.35168139       2.12226335      -0.00144435       0.00095546      -0.00000748
Ti       0.22185712       3.50208673       2.76907789      -0.00092159      -0.00210495       0.00316525
Ti       2.76798501       8.37327913       2.76908552      -0.00141895       0.00159690      -0.00517319
Ti       1.10057928       0.87804499       3.50246071       0.00000379      -0.00235325       0.00017665
Ti       3.64821203       5.74384764       3.50543082      -0.00030579      -0.00099820       0.00190430
Ti       2.75902888       3.10347187       4.20645107      -0.00200801      -0.00220707       0.00189721
Ti       0.21458254       7.97868947       4.18963706      -0.00629483      -0.00107348       0.00300276
Ti       3.60522727       0.43802067       4.86571468       0.00382792       0.00150579       0.00346845
Ti       1.06160119       5.30293881       4.85693398      -0.00179754       0.00005603       0.00142534
Ti       2.75068562       7.52424721       5.58834484       0.00096989      -0.00063999       0.00052173
Ti       0.20864624       2.64432364       5.60485194       0.00152016      -0.00074023      -0.00277622
Ti       3.60156806       4.86681271       6.30447747      -0.00008890       0.00029220      -0.00229888
Ti       1.06414522       0.00013398       6.30098532       0.00233099       0.00093908      -0.00224770
Ti       0.20490364       7.06811217       6.96048153       0.00135767      -0.00300640       0.00060730
Ti       2.75877453       2.18973994       7.00601572       0.00415135      -0.00306293      -0.00040141
Ti       1.09130805       4.42869277       7.65872958       0.00208523      -0.00175794      -0.00071269
Ti       3.64740700       9.31340118       7.66935031       0.00380183      -0.00004766      -0.00505995
Ti       0.24835898       1.77299992       8.43858308      -0.00140152       0.00370199      -0.00024934
Ti       2.76506607       6.67387594       8.39341357      -0.00529399       0.00325788      -0.00431395
Ti       1.05734807       8.81994800       9.03485132       0.00321479       0.00192206      -0.00338896
Ti       3.57160726       3.94908677       9.04195508       0.00880669       0.00272503       0.00539855
Ti       2.74660920       1.22687052       9.89796950       0.00503835      -0.00395164       0.00614428
Ti       0.14293857       6.10043033       9.75211321       0.00494150       0.00298107      -0.00474882
Ti       3.84342955       8.32072996      10.52827429       0.00610080      -0.00005793       0.00472232
Ti       1.23619588       3.45457347      10.51253634      -0.00461016      -0.00650235       0.00379347
Ti       0.15213744       0.94968989      11.24021807       0.00770804      -0.00141249       0.00394321
Ti       2.52175062       5.80572796      11.15853786       0.00132060      -0.00509287      -0.00468387
Ti       3.76169297       3.39269913      11.77421503       0.00954071      -0.00281789      -0.00857047
Ti       1.31011054       8.31693375      11.79354125      -0.00019900      -0.00548057       0.00140651
V        2.50645905       1.25174115      12.59670105       0.00081064      -0.00562755      -0.00156901
Ti       4.93119699       6.10566787      12.52373269       0.00116400      -0.00463884      -0.00586135
Ti       1.47362842       3.90011728      13.25040591      -0.00479707      -0.00175221       0.00728720
Ti       3.98572962       8.84323762      13.22782498       0.01125193      -0.00408039      -0.00521965
Ti       4.82159113       1.80158559      13.90371562       0.01108873      -0.00069449       0.01008376
Ti       2.29617035       6.62874582      13.91347787      -0.00538093       0.00347265      -0.00404264
Ti       1.44743120       9.33450416      14.54167196       0.00216913      -0.00048917      -0.00109281
Ti       3.98260450       4.44759710      14.63813111       0.00530890       0.00337193       0.00900434
Ti       4.88130620       7.08667635      15.32348323      -0.00026116      -0.00379812      -0.00403026
Ti       2.33130246       2.19463250      15.34455394       0.00011767       0.00282120       0.00193426
Ti       1.46319356       4.87021270      16.00390939      -0.00179104      -0.00047335      -0.00699271
Ti       4.03116616       0.01049682      15.98591625       0.00665475      -0.00159808       0.01087340
Ti       2.33049639       7.54168707      16.68562777      -0.00221395      -0.00336079       0.00088040
Ti       4.87968173       2.66334686      16.70748940      -0.00381777      -0.00005095      -0.00307369
Ti       4.00431822       5.30831495      17.42888544      -0.00406144      -0.00054946       0.00241760
Ti       1.45543138       0.42770885      17.42336964       0.00052763      -0.00009172      -0.00026219
Ti       4.86341320       7.97197867      18.10489038      -0.00060163       0.00314873      -0.00407406
Ti       2.32256825       3.10541886      18.10682660      -0.00020195       0.00303563       0.00326688
Ti       1.44208775       5.74700263      18.78046703      -0.00488413      -0.00077875      -0.00182719
Ti       3.98036113       0.87149773      18.77007971      -0.00175773      -0.00044673       0.00530335
Ti       2.32229454       8.37323021      19.52659972      -0.00628834      -0.00188721      -0.00417225
Ti       4.86548505       3.49876121      19.52917135      -0.00508124       0.00005413       0.00729744
Ti       1.50759626       1.34584722      20.17141264      -0.00322890      -0.00017579       0.00007736
Ti       4.05361546       6.21766274      20.17807019      -0.00393959       0.00141773      -0.00349617
Ti       4.91760109       8.94945600      20.90250173       0.00115083       0.00120731      -0.00149288
Ti       2.37527206       4.07595684      20.90139879      -0.00424322       0.00591126       0.00546377
Ti       3.81541002       1.87880779      21.67828966      -0.00393940       0.00754829      -0.00046521
Ti       1.27404208       6.75164818      21.67798008      -0.00493692       0.00240995       0.00499926
