64
Lattice="5.871999 0.0 0.0 0.0 6.890708 0.0 0.0 0.0 27.401158" Properties=species:S:1:pos:R:3:forces:R:3 job_name=Segregation-1sol-T1m-V-V-38-d-2.03 top_level=Segregation-1sol solute=V energy=-495.93006591 stress_kbar_3x3="_JSON [[-12.26208144, 0.00065284, 0.0008219], [0.00065282, -12.20245784, -2.86329509], [0.00082189, -2.86329509, -22.63291836]]" pbc="T T T"
Ti       2.92914158       0.10115084      27.39291278      -0.00076911      -0.00134633      -0.00143117
Ti       2.93479215       2.93471746      27.38864435      -0.00051192      -0.00029848       0.00066772
Ti       0.00690433       0.10115977      27.39289496       0.00080426      -0.00135026      -0.00141501
Ti       0.00128281       2.93474775      27.38862298       0.00051629      -0.00044824       0.00071671
Ti       4.40403133       5.02749556       1.40651630      -0.00004193      -0.00077509      -0.00095942
Ti       1.46801183       5.02668249       1.40485926       0.00005830      -0.00058009       0.00131592
Ti       4.40404066       1.31980920       2.02505777      -0.00004106       0.00187190       0.00164015
Ti       1.46801063       1.32151408       2.02889868       0.00003851       0.00130250      -0.00092483
Ti       2.93717047       3.41363176       3.21277991      -0.00013604       0.00122735       0.00278325
Ti       5.87087871       3.41364222       3.21277251       0.00012347       0.00121037       0.00279146
Ti       2.93576410       6.22860030       3.61955925       0.00062829       0.00145621       0.00212707
Ti       0.00026235       6.22860343       3.61957405      -0.00058380       0.00143285       0.00211376
Ti       1.46802554       1.49700099       4.84567677      -0.00003108       0.00605622       0.00158512
Ti       4.40402088       1.49556969       4.84681786       0.00001465       0.00501537      -0.00120184
Ti       1.46802271       4.44400582       5.45458003       0.00002136       0.00365257      -0.00301369
Ti       4.40402091       4.44369788       5.45392768      -0.00001094       0.00432385      -0.00376525
Ti       2.93228162       6.60449763       6.61326733       0.00140959       0.00770286      -0.00102943
Ti       0.00376323       6.60448591       6.61327203      -0.00150629       0.00776481      -0.00110422
Ti       2.93253283       2.53014824       7.12499620       0.00133071       0.00832694      -0.00386724
Ti       0.00351077       2.53014462       7.12498860      -0.00135004       0.00836944      -0.00387973
Ti       4.40400939       4.69696236       8.28970110       0.00004890       0.00859398      -0.00149487
Ti       1.46801448       4.70495077       8.29045580      -0.00003322       0.00662712      -0.00115059
Ti       4.40400241       0.73708315       8.87812521       0.00002662       0.00738857       0.00385397
Ti       1.46802151       0.73498268       8.91002749      -0.00014744       0.00772036      -0.00565548
Ti       0.00198244       2.90507707      10.08522554       0.00005688       0.00926311       0.00047581
Ti       2.93402473       2.90506292      10.08525127      -0.00005514       0.00928874       0.00051971
Ti       0.01084466       5.73465469      10.55809677      -0.00336097       0.00752220       0.00072955
Ti       2.92517474       5.73464561      10.55811159       0.00335731       0.00755162       0.00076157
Ti       1.46802534       0.98179573      11.75103002       0.00008096       0.00239405      -0.00211462
Ti       4.40398850       0.96722488      11.70092531      -0.00005659       0.00790664       0.00891277
Ti       1.46793204       4.05780106      12.32953641      -0.00000538       0.00664879       0.00094685
Ti       4.40406648       4.04737803      12.31195888       0.00000516       0.00769295       0.00021655
Ti       2.99187324       2.11707957      13.86125411      -0.00761983       0.00224600      -0.00142963
Ti       5.81608302       2.11695724      13.86134935       0.00746745       0.00219362      -0.00129083
Ti       2.95244447       6.18243079      13.69461524      -0.00369246       0.00254016      -0.00052502
Ti       5.85555333       6.18245214      13.69463508       0.00369820       0.00245537      -0.00049074
Ti       4.40412558       4.14852959      15.10118614       0.00002012      -0.00096699       0.00283841
Ti       1.46788016       4.15109212      15.12070192       0.00002423       0.00306038       0.00141330
V        4.40351815       0.81150643      15.72406838      -0.00001242      -0.00161238      -0.01165831
Ti       1.46830105       0.84936379      15.74543021       0.00043598      -0.00986000       0.00003540
Ti       2.96738651       5.71307020      16.89474942       0.00452276      -0.00758423      -0.00215522
Ti       5.84059573       5.71330565      16.89467754      -0.00452469      -0.00757667      -0.00204090
Ti       2.94596009       2.84055368      17.23109639      -0.00113937      -0.00335152      -0.00449170
Ti       5.86208095       2.84051216      17.23109595       0.00103898      -0.00339557      -0.00451394
Ti       4.40399241       0.71619297      18.48253752       0.00003086      -0.00965535      -0.00098541
Ti       1.46808836       0.73921792      18.52793120      -0.00014779      -0.00884817       0.00500651
Ti       4.40406539       4.64978910      19.10514949       0.00009146      -0.00740565       0.00153830
Ti       1.46798121       4.63796134      19.08278656      -0.00018257      -0.00974454       0.00147093
Ti       5.86811798       2.51433443      20.25775552      -0.00140990      -0.00745807       0.00191496
Ti       2.93994710       2.51435762      20.25775391       0.00143412      -0.00760471       0.00196863
Ti       5.86571922       6.58258570      20.76508598      -0.00185275      -0.00672252       0.00099285
Ti       2.94232352       6.58256702      20.76507180       0.00189536      -0.00662611       0.00102437
Ti       1.46801870       4.43525182      21.91873983       0.00001337      -0.01020540       0.00612774
Ti       4.40402284       4.43046735      21.93776675       0.00001556      -0.00866321       0.00162198
Ti       1.46804281       1.48572438      22.52339986      -0.00004496      -0.00459221       0.00374924
Ti       4.40402871       1.48659167      22.53911932       0.00003359      -0.00468558      -0.00051840
Ti       2.93459896       6.22606110      23.75807583       0.00083045      -0.00701890      -0.00103963
Ti       0.00149453       6.22605775      23.75808200      -0.00086234      -0.00694038      -0.00105078
Ti       2.93538338       3.40785428      24.16844260       0.00004507      -0.00338542      -0.00113407
Ti       0.00064291       3.40786005      24.16843325       0.00002356      -0.00338555      -0.00112834
Ti       4.40403950       1.31431411      25.35920424      -0.00004349      -0.00265188       0.00228991
Ti       1.46802126       1.31578098      25.34591823       0.00002468      -0.00346462       0.00026901
Ti       4.40403223       5.02735852      25.97299111      -0.00002262      -0.00164343       0.00211671
Ti       1.46803599       5.02948655      25.97120255       0.00002906      -0.00095935       0.00092409
