100
Lattice="4.4265 -2.555641 0.0 3.767997 6.526363 -0.031456 0.0 0.0 45.781652" Properties=species:S:1:pos:R:3:forces:R:3 job_name=Segregation-1sol-CSL13-V-V-65-d-6.97 top_level=Segregation-1sol solute=V energy=-775.52916053 stress_kbar_3x3="_JSON [[-36.58205443, -2.40154267, -0.74572449], [-2.40154263, -41.16155355, 0.93177776], [-0.74572445, 0.93177776, -17.66125272]]" pbc="T T T"
Ti       2.45149567      -0.91872109      45.76490976      -0.00391812      -0.00175974      -0.00173909
Ti       5.74001937       1.53298020      45.75098554      -0.00456074      -0.00351794      -0.00492610
Ti       4.95243904      -0.82728859       1.37235266      -0.00503030      -0.00050054      -0.00009108
Ti       4.57747209       3.74324574       1.35699454      -0.00079473      -0.00338083       0.00090288
Ti       7.07975061       3.82962136       2.64162211      -0.00050989       0.00016090       0.00049432
Ti       3.78527352       1.38172968       2.65660044      -0.00340391       0.00164712       0.00143690
Ti       1.63773433      -0.47352895       2.84713031      -0.00079300       0.00028303      -0.00219678
Ti       2.11930540       3.59609339       2.83056718      -0.00209244       0.00192081      -0.00213679
Ti       4.68583109       3.63250043       4.14836743      -0.00263713       0.00373815       0.00049839
Ti       4.81553118      -0.79306729       4.16444462      -0.00087278       0.00334386       0.00043260
Ti       3.42987171       5.84897861       5.27292614      -0.00237113       0.00386698      -0.00180551
Ti       2.93876727       1.78102544       5.29004887       0.00058586       0.00398619      -0.00420379
Ti       2.39714829      -0.98755687       5.72321340       0.00012387       0.00366828      -0.00014334
Ti       5.72925245       1.44079343       5.70763559       0.00043975       0.00238418       0.00091527
Ti       4.29652565       3.73116484       6.94675418      -0.00183833       0.00398220      -0.00024281
Ti       5.09877389      -1.08272594       6.96250474       0.00489562       0.00148403       0.00014724
Ti       6.92744180       3.59182064       7.87021592      -0.00026162       0.00320580      -0.00173671
Ti       3.66354070       1.12506990       7.88639335       0.00116161       0.00196337      -0.00258721
Ti       6.37259842       0.88049800       8.58529799       0.00017636       0.00294296       0.00364751
Ti       1.59276621      -0.71122472       8.60070582       0.00156940       0.00355686       0.00270252
Ti       4.77990376       3.18924381       9.68594741       0.00220856       0.00174760       0.00092483
Ti       4.38972051      -0.93651878       9.70188354       0.00077531       0.00443712       0.00197151
Ti       3.18060501       5.41547136      10.48551857       0.00357103       0.00170769       0.00007594
Ti       2.68954129       1.34886634      10.50220832       0.00276633       0.00322693       0.00070098
Ti       5.89729283       5.21041680      11.42214221       0.00421453       0.00111625       0.00196580
Ti       5.58066596       1.04129994      11.43892717       0.00010602       0.00246472       0.00327810
Ti       0.59414014       0.92980745      12.37938127       0.00426406      -0.00014168       0.00047801
Ti       3.86983087       3.39273861      12.36255992       0.00183339       0.00099938       0.00286948
Ti       3.31639708       0.66624326      13.18288124       0.00305780       0.00291108       0.00228857
Ti       6.70609750       3.06073766      13.16697103       0.00064341       0.00194027       0.00026682
Ti       5.11387386       5.37728270      14.27854140       0.00169120       0.00146492      -0.00074548
Ti       6.12541288       0.44333301      14.29282665       0.00282942       0.00103514      -0.00136195
Ti       4.55574503       2.66550029      14.97485428       0.00527119       0.00153915       0.00610043
Ti       4.05746034      -1.39259636      14.99451279       0.00103106       0.00493702       0.00196658
Ti       7.18391708       2.54208731      15.91028868       0.00652568      -0.00088258      -0.00107083
Ti       2.63514859       0.81760599      15.92694343      -0.00216898       0.00480676       0.00042321
Ti       5.77182215       4.83660222      17.15422459       0.00068708       0.00546906      -0.00472191
Ti       5.33824681       0.73829085      17.17247262       0.00424567       0.00169268      -0.00696132
Ti       3.65093511       2.98683492      17.57803579       0.00246166       0.00512243       0.00393051
Ti       0.36807148       0.52909254      17.59455061       0.00417148       0.00603271       0.00317409
Ti       2.92246869       0.55770323      18.72483240       0.00881785       0.00226865      -0.00237547
Ti       6.82872408       2.65386408      18.71081130      -0.00236741       0.00593621      -0.00072793
Ti       4.97470058       5.25662895      20.01396122       0.00303666       0.00593739      -0.00009172
Ti       1.68154565       2.80730769      20.03185882       0.00190710       0.00296247      -0.00300196
Ti       4.44020086       2.47706638      20.22524796       0.00037264       0.00478367      -0.00653415
Ti       3.96774613      -1.60116199      20.24085830       0.00662303      -0.00015013      -0.00558408
Ti       6.95674220       2.57132725      21.50021041      -0.00221391       0.00494930      -0.00354912
Ti       2.79470682       0.62128136      21.51431372       0.00824508       0.00500183      -0.00294174
Ti       3.65295725       2.93979423      22.92012593       0.00579234       0.00075197      -0.00856318
Ti       0.34394055       0.50311295      22.93285488       0.00546296       0.00306483      -0.00478495
Ti       5.78179723       4.79990901      22.84789258       0.00383485       0.00374063      -0.00034291
Ti       5.31886471       0.72315896      22.86343927       0.00275604      -0.00017086       0.00220730
Ti       2.84307417       0.61794141      24.28391183       0.00184431       0.00708416      -0.00263115
Ti       6.94754148       2.60884154      24.27003215       0.00627533      -0.00588382      -0.00048372
Ti       4.01460621      -1.58056090      25.64183462      -0.00062059       0.00026659       0.00107170
Ti       4.46656037       2.50600617      25.62549993      -0.00067758       0.00341452      -0.00726320
Ti       1.71252716       2.84057489      25.68907029      -0.00225526       0.00367788      -0.00435349
Ti       5.01535779       5.28114375      25.69052873       0.00166384       0.00255290      -0.01078586
Ti       2.91862598       0.62970260      27.04701419       0.00298250      -0.00034895       0.00247468
Ti       6.93384170       2.65605159      27.03544849      -0.00020178       0.00563184      -0.00057726
Ti       0.46248982       0.53820856      28.33238633      -0.00339870       0.00628346       0.00279292
Ti       3.68600306       2.99661781      28.32298772      -0.00140310      -0.00138790      -0.01100930
Ti       5.34847861       0.76659399      28.51107532       0.00447793       0.00273836       0.00359055
Ti       5.88681922       4.87501758      28.53096953      -0.00865011      -0.00158127      -0.00148383
Ti       7.13720094       2.63607324      29.82639389       0.00552462      -0.00943931       0.00003381
V        2.83161545       0.75424282      29.77474437      -0.00188826       0.00354390      -0.00319858
Ti       4.54762384       2.55303436      30.86959119       0.00640845       0.00421612      -0.00275036
Ti       4.09158394      -1.34289019      30.88697243      -0.00067689      -0.00361683       0.00269854
Ti       1.82786553       2.92584625      31.30518986      -0.00726782       0.00081480       0.00755296
Ti       5.13382122       5.43284069      31.30146735      -0.00169657      -0.00467703       0.01084442
Ti       3.18102821       0.74156797      32.58285775       0.00355781      -0.00467380      -0.00239602
Ti       6.71878982       3.02608403      32.56619913      -0.00079748      -0.00418096       0.00252812
Ti       3.84283015       3.42032684      33.40010846      -0.00452814      -0.01326320       0.00267361
Ti       0.52539995       0.85290875      33.49363437      -0.00002195       0.00093005      -0.00221789
Ti       5.89539861       5.20840421      34.22395771      -0.00707554      -0.00701906       0.00372530
Ti       5.55485774       1.00244458      34.17542560      -0.00539150      -0.00255643       0.00671934
Ti       7.52689989       2.85234591      35.25925979      -0.00225034      -0.00405300       0.00851360
Ti       2.65031222       1.34683416      35.29093107       0.00313582      -0.00873438       0.00160319
Ti       4.78243838       3.14412277      36.04149907      -0.00637202       0.00259907       0.00636045
Ti       4.33139766      -0.88848754      36.08853639      -0.00430673      -0.00867598       0.00166248
Ti       6.32521509       0.93373431      37.12353753      -0.00339365      -0.00756220      -0.00194933
Ti       1.56492487      -0.70758408      37.11580190      -0.00163268      -0.01019609      -0.00011755
Ti       6.89246128       3.61544504      37.87473175      -0.00195713      -0.00968724       0.00307199
Ti       3.60642569       1.12728451      37.92003119      -0.00475867      -0.00657788       0.00535703
Ti       4.24654212       3.78123276      38.75939451      -0.00411413      -0.00621414       0.00511280
Ti       5.12615067      -1.07888992      38.78256244       0.00022679      -0.00400982       0.00090259
Ti       5.72713924       1.46780179      40.00887041       0.00132931      -0.00474598      -0.00151367
Ti       2.36415802      -0.93262801      40.00792237      -0.00512148       0.00075133       0.00067655
Ti       3.40705100       5.87750255      40.46213044      -0.00696585      -0.00716820       0.00324530
Ti       2.92064259       1.82108043      40.49467840       0.00061161      -0.00595493       0.00312750
Ti       4.69301215       3.66632369      41.55577074       0.00045790      -0.00333852       0.00156248
Ti       4.78461365      -0.74357443      41.57046715      -0.00348034      -0.00662007      -0.00461540
Ti       2.11168701       3.62841934      42.88860272      -0.00517831       0.00020951       0.00082468
Ti       1.63003536      -0.44800733      42.90289948       0.00182978      -0.00374992       0.00166342
Ti       7.07119580       3.85791236      43.07779426       0.00131467      -0.00156457      -0.00027541
Ti       3.77934527       1.40781948      43.09677527      -0.00274400      -0.00332222      -0.00213659
Ti       4.57357737       3.75765774      44.35946178      -0.00338082      -0.00222768      -0.00054884
Ti       4.95304901      -0.81187351      44.37359461      -0.00368937      -0.00000976      -0.00375248
Ti       3.45878882       5.94783712      45.74346773      -0.00364789      -0.00198480       0.00315105
Ti       2.98835571       1.86871131      45.76464240      -0.00441747      -0.00336682       0.00188694
