64
Lattice="5.872 0.0 0.0 0.0 6.890708 0.0 0.0 0.0 27.394398" Properties=species:S:1:pos:R:3:forces:R:3 job_name=Segregation-1sol-T1g-V-V-36-d-1.90 top_level=Segregation-1sol solute=V energy=-495.9448123 stress_kbar_3x3="_JSON [[-12.41312678, 0.00053786, -0.00107283], [0.00053787, -11.5128377, 0.27477026], [-0.00107281, 0.27477023, -22.75988394]]" pbc="T T T"
Ti       4.40314485       5.21373330      -0.00380655       0.00014940       0.00001145      -0.00435049
Ti       1.46885103       5.21369197      -0.00379667      -0.00027228       0.00010891      -0.00432027
Ti       5.87193978       3.18717783       1.28319639       0.00000629      -0.00014647      -0.00010590
Ti       2.93605932       3.18846471       1.28121490      -0.00001872      -0.00091480      -0.00130153
Ti       0.00005643       6.63634543       1.90472396      -0.00003505       0.00048445      -0.00334398
Ti       2.93590413       6.63657109       1.90376194       0.00009151       0.00054404      -0.00268204
Ti       4.40271116       1.76902855       3.19363972       0.00079308       0.00249552       0.00421320
Ti       1.46924176       1.76906746       3.19365452      -0.00085135       0.00251587       0.00422122
Ti       1.46853272       4.59606084       3.40585072      -0.00035083      -0.00081956       0.00289778
Ti       4.40341971       4.59604620       3.40585353       0.00031546      -0.00076097       0.00290281
Ti      -0.00003145       6.72481354       4.72360207      -0.00000380       0.00105022       0.00755193
Ti       2.93593798       6.72701240       4.72054634       0.00004159      -0.00030076       0.00826901
Ti       2.93598034       2.87635846       5.33480605      -0.00003681       0.00108890       0.00739352
Ti       5.87193374       2.87644678       5.33309810       0.00003867       0.00137611       0.01097781
Ti       4.40093888       5.00778163       6.49328871       0.00177763       0.00058642       0.00798414
Ti       1.47096741       5.00778528       6.49329972      -0.00175109       0.00054103       0.00800630
Ti       4.40133914       0.93237715       6.97425178       0.00132091       0.00121318       0.00852849
Ti       1.47054606       0.93238531       6.97425866      -0.00130722       0.00122165       0.00858662
Ti       2.93597295       3.09933003       8.15929834       0.00015026      -0.00034199       0.01014200
Ti      -0.00005333       3.09327656       8.15924997       0.00012342       0.00270854       0.00893872
Ti       2.93597194       6.02107257       8.77553242       0.00001917       0.00045421       0.00478157
Ti       5.87197264       6.02145573       8.75410591       0.00001289       0.00034161       0.00963261
Ti       4.40116624       1.29277065       9.93925149      -0.00100859      -0.00036316       0.00570082
Ti       1.47086522       1.29274911       9.93928613       0.00102439      -0.00036024       0.00568705
Ti       4.39818656       4.11531692      10.43787073      -0.00058683      -0.00182464       0.00592299
Ti       1.47379554       4.11530769      10.43784579       0.00064104      -0.00184021       0.00593225
Ti       2.93599056       6.25457943      11.61502631      -0.00000580      -0.00190083      -0.00302139
Ti       0.00008517       6.24755778      11.58283791       0.00005116       0.00051045       0.00747238
Ti       2.93614965       2.38262656      12.20699171      -0.00000197      -0.00147280      -0.00056285
Ti      -0.00004468       2.36929809      12.18336590      -0.00007148      -0.00213750       0.00552979
Ti       1.45217982       4.50950551      13.52498611       0.00113589      -0.00450312      -0.00045989
Ti       4.42000922       4.50948189      13.52515346      -0.00117314      -0.00443038      -0.00038124
Ti       4.43445202       0.43383081      13.78910068      -0.00345433       0.00350820      -0.00121294
Ti       1.43776146       0.43407328      13.78895769       0.00358878       0.00347034      -0.00117337
Ti       5.87189974       2.47893070      14.96197181      -0.00023093      -0.00211418      -0.00005657
Ti       2.93627427       2.48457354      14.99594755      -0.00007295       0.00280891       0.00413775
V        0.00085720       5.92555969      15.58007531       0.00018646      -0.00056388      -0.00490747
Ti       2.93542707       5.92625668      15.62658749      -0.00041838      -0.00504317      -0.00076757
Ti       4.45408480       3.93526446      16.82061564      -0.00064404      -0.00759444       0.00300287
Ti       1.41798145       3.93494499      16.82068027       0.00081892      -0.00758247       0.00298669
Ti       4.41679140       1.04752896      17.05860674       0.00016802       0.00068700       0.00019853
Ti       1.45537926       1.04765195      17.05858018      -0.00012085       0.00073642       0.00024694
Ti       0.00007689       5.81660100      18.36458024      -0.00000117       0.00278278       0.00265886
Ti       2.93594786       5.83865261      18.41893639       0.00000073       0.00048319       0.00117668
Ti       2.93612033       2.79753742      18.96104324       0.00007027      -0.00233199      -0.00138210
Ti       5.87192807       2.81397081      18.98984804      -0.00012147      -0.00343439      -0.00311129
Ti       4.40735911       0.67944030      20.14176466      -0.00046294       0.00092289      -0.00647089
Ti       1.46461294       0.67948028      20.14176212       0.00053148       0.00085922      -0.00645430
Ti       1.46035734       4.73901124      20.64039590      -0.00003655       0.00229623      -0.00538109
Ti       4.41165648       4.73902683      20.64041322      -0.00003172       0.00222113      -0.00544788
Ti       2.93598699       2.57851071      21.80637693       0.00002998       0.00142002      -0.00643025
Ti       5.87198814       2.57508670      21.82815909       0.00000322       0.00322086      -0.00650297
Ti       2.93598706       6.54307611      22.41031563      -0.00001651       0.00266455      -0.00805374
Ti       0.00000093       6.54265219      22.42384779       0.00002042       0.00268124      -0.01051476
Ti       4.40201513       4.38056447      23.60671744       0.00099052       0.00153404      -0.00777121
Ti       1.46997106       4.38054098      23.60670745      -0.00097455       0.00158146      -0.00779669
Ti       4.40161077       1.56069024      24.08750190       0.00057929       0.00176367      -0.00822131
Ti       1.47036560       1.56069035      24.08751215      -0.00055275       0.00172672      -0.00821463
Ti       2.93598191       6.32086064      25.24234632      -0.00002458      -0.00031945      -0.00813128
Ti       0.00002328       6.32127459      25.25122901      -0.00000469      -0.00001200      -0.00928437
Ti      -0.00002066       3.27991548      25.85827348       0.00003838       0.00031990      -0.00776160
Ti       2.93601024       3.28344039      25.85693502      -0.00000547       0.00022387      -0.00731687
Ti       1.46874201       1.15036117      27.17311482      -0.00074316      -0.00202490      -0.00639719
Ti       4.40329530       1.15037341      27.17311498       0.00067280      -0.00202689      -0.00638940
