64
Lattice="5.872 0.0 0.0 0.0 6.890708 0.0 0.0 0.0 27.394398" Properties=species:S:1:pos:R:3:forces:R:3 job_name=Segregation-1sol-T1g-V-V-35-d-1.29 top_level=Segregation-1sol solute=V energy=-495.94419245 stress_kbar_3x3="_JSON [[-12.36913889, 0.00239056, 0.00161799], [0.00239057, -11.49541723, -0.22109597], [0.00161798, -0.22109598, -22.73869374]]" pbc="T T T"
Ti       4.40526016       5.21455340      27.39023443      -0.00052258      -0.00052677      -0.00668963
Ti       1.46672346       5.21412814      27.39006914       0.00066205      -0.00055310      -0.00643600
Ti       5.87157107       3.19089980       1.28437460       0.00055477       0.00129051      -0.00111565
Ti       2.93640569       3.19061476       1.28332490      -0.00055948       0.00096038      -0.00028035
Ti      -0.00013074       6.63421759       1.90777227       0.00011444       0.00073214       0.00257307
Ti       2.93611591       6.63289377       1.90558069      -0.00042173       0.00025232       0.00130630
Ti       4.40491343       1.76831186       3.19230865       0.00032629      -0.00142448       0.00562793
Ti       1.46700996       1.76815571       3.19232490      -0.00037067      -0.00110587       0.00574161
Ti       1.46720375       4.59561743       3.40945058       0.00076408       0.00096914       0.00450022
Ti       4.40474768       4.59578825       3.40936600      -0.00075342       0.00065307       0.00461414
Ti       0.00002912       6.72865705       4.72628440       0.00003346       0.00106215       0.00300630
Ti       2.93588536       6.72486502       4.72550693       0.00003578       0.00077684       0.00358658
Ti       2.93580603       2.87600392       5.33211114       0.00006992      -0.00010106       0.00772223
Ti       0.00005640       2.87498881       5.34096415      -0.00005522       0.00052311       0.00702088
Ti       4.40666635       5.00565595       6.49646040      -0.00004726      -0.00102453       0.00325642
Ti       1.46522654       5.00564846       6.49645759       0.00003284      -0.00115187       0.00306995
Ti       4.40621512       0.93488192       6.97684426      -0.00033444       0.00230986       0.00167318
Ti       1.46565014       0.93468597       6.97692093       0.00028631       0.00274860       0.00157522
Ti       2.93591043       3.09713150       8.15953187       0.00024846       0.00151368       0.00093750
Ti       0.00003668       3.09813882       8.17365879      -0.00013103       0.00030117      -0.00009840
Ti       2.93585334       6.02012232       8.75455289       0.00019985       0.00124566       0.00390263
Ti       0.00006129       6.02329813       8.77727979      -0.00022878       0.00109092       0.00320045
Ti       4.39623549       1.29312309       9.94370499       0.00037456      -0.00024017       0.00150110
Ti       1.47577748       1.29315289       9.94370480      -0.00039534      -0.00014938       0.00147857
Ti       4.40046870       4.12502702      10.44126635       0.00061813       0.00121445       0.00091825
Ti       1.47149429       4.12494375      10.44143660      -0.00067029       0.00120596       0.00063870
Ti       2.93601344       6.25938402      11.59216760      -0.00012727      -0.00167757       0.00032889
Ti       0.00006402       6.24268779      11.62172126      -0.00007866      -0.00020902       0.00143296
Ti       2.93609375       2.37076913      12.21707704       0.00003826       0.00045016       0.00511941
Ti      -0.00000781       2.39315058      12.16409581      -0.00014687      -0.00055772       0.00675197
Ti       1.48162937       4.49193754      13.52437655      -0.00226370      -0.00345024       0.00206207
Ti       4.39052206       4.49251385      13.52435714       0.00235141      -0.00372334       0.00192531
Ti       4.35262749       0.48977997      13.76109576       0.00419138       0.00064092      -0.00145236
Ti       1.51950415       0.48981639      13.76120541      -0.00434584       0.00121487      -0.00143511
Ti       5.87119132       2.47982311      14.95578155       0.00010378      -0.00252647      -0.00668647
V        2.93720044       2.47997586      15.00215928       0.00021080       0.00078992       0.00110742
Ti       0.00021452       5.93073072      15.58630472       0.00025750      -0.00064672      -0.00050120
Ti       2.93595130       5.92493387      15.62085459      -0.00023898      -0.00321056       0.00278810
Ti       4.37344989       3.87996169      16.79286834       0.00265683       0.00123411      -0.00081701
Ti       1.49882313       3.87955799      16.79253416      -0.00264468       0.00103711      -0.00050510
Ti       4.38810721       1.06436974      17.05818984       0.00142820      -0.00216214      -0.00055701
Ti       1.48397111       1.06421297      17.05814376      -0.00145092      -0.00189602      -0.00091809
Ti       0.00018893       5.82808145      18.37603826       0.00004446      -0.00006194      -0.00275752
Ti       2.93588493       5.81406877      18.39895798      -0.00002200      -0.00030079      -0.00358648
Ti       2.93608424       2.80282734      18.99934450       0.00000639       0.00054513      -0.00468707
Ti       5.87196086       2.80953523      18.96697310       0.00016755      -0.00085670       0.00055231
Ti       4.40990680       0.67015801      20.14301355       0.00079618      -0.00039795      -0.00181090
Ti       1.46207539       0.67018276      20.14298160      -0.00078944      -0.00025774      -0.00168080
Ti       1.46504765       4.73837784      20.64256477      -0.00018928      -0.00077469      -0.00116997
Ti       4.40698222       4.73837150      20.64249167       0.00017216      -0.00048081      -0.00144913
Ti       2.93602899       2.57620316      21.82717917      -0.00022343       0.00049227      -0.00263580
Ti      -0.00003496       2.57561305      21.80589431       0.00027992       0.00057633      -0.00148621
Ti       2.93596821       6.53900235      22.42206796       0.00019062       0.00146284      -0.00186766
Ti      -0.00000260       6.54542259      22.42197589      -0.00001816      -0.00010024      -0.00185730
Ti       4.40662866       4.37757951      23.60674734      -0.00035706       0.00139505      -0.00223469
Ti       1.46533324       4.37751916      23.60695097       0.00037203       0.00118185      -0.00244723
Ti       4.40700563       1.56299720      24.08852944      -0.00016641      -0.00096971      -0.00327221
Ti       1.46498984       1.56295343      24.08824665       0.00020689      -0.00056111      -0.00297215
Ti       2.93605819       6.32230383      25.24838486      -0.00013236      -0.00065349      -0.00589694
Ti      -0.00004369       6.32198800      25.24697588      -0.00002535       0.00003417      -0.00476134
Ti      -0.00025347       3.28223611      25.86141713       0.00044123      -0.00000585      -0.00368298
Ti       2.93626180       3.27991527      25.85817392      -0.00045977       0.00091591      -0.00267207
Ti       1.46748489       1.15063212      27.17685823       0.00034249       0.00065918      -0.00480023
Ti       4.40454164       1.15077019      27.17686925      -0.00040858       0.00027827      -0.00469864
