52
Lattice="4.6568 0.0 0.0 0.0 7.770572 0.0 0.0 0.0 25.044546" Properties=species:S:1:pos:R:3:forces:R:3 job_name=Segregation-1sol-CSL7-V-V-38-d-6.58 top_level=Segregation-1sol solute=V energy=-401.3008039 stress_kbar_3x3="_JSON [[-18.82258589, 0.02915646, -0.18242717], [0.02915645, -26.21257264, 0.1292078], [-0.18242718, 0.12920776, -22.57064918]]" pbc="T T T"
Ti       1.81708825       7.39384601       0.69192229      -0.01668716       0.00471339       0.00596883
Ti       4.62639489       5.59826087       1.35034280       0.00917830       0.00563331      -0.00318834
Ti       2.45679899       2.27553566       1.59679420      -0.00616671       0.00445790      -0.00261635
Ti       4.56665635       0.62369769       2.06905669       0.00582612      -0.00725786      -0.00984138
Ti       2.35316835       5.01074221       2.81237277      -0.00189279      -0.00242314       0.00100842
Ti       0.02214213       3.33716466       3.00131684       0.00099486       0.00126001       0.00126463
Ti       2.31076701       0.01278118       3.64058483      -0.00379138       0.00004581      -0.00409157
Ti       0.02867733       6.10340890       4.07936672      -0.00098074       0.00011727      -0.00383950
Ti       2.33774163       2.76609457       4.59190310       0.00345995       0.00457417      -0.00124191
Ti       0.00338040       1.11669238       4.98670905      -0.00033662       0.00578264       0.00443589
Ti       2.34384875       5.56882005       5.60976960       0.00304232      -0.00268290      -0.00275825
Ti       0.00666442       3.87358593       5.94395514       0.00180394      -0.00316066      -0.00048100
Ti       2.33507529       0.56731937       6.57454951       0.00160749       0.00252169       0.00354089
Ti       0.01595240       6.64163608       6.90835058       0.00263107       0.00137709       0.00054541
Ti       2.33191900       3.32393814       7.53238435      -0.00021698      -0.00762595      -0.00073102
Ti       0.01103758       1.67453117       7.92499227       0.00219529      -0.00305424       0.00427047
Ti       2.35650807       6.10677227       8.43812374       0.00065072      -0.00012637       0.00312815
Ti       4.63885718       4.42836583       8.87981390      -0.00124023      -0.00497463       0.00193249
Ti       2.35054254       1.10453949       9.51640169       0.00141464       0.00558831      -0.00206830
Ti       0.02825923       7.19948720       9.70414972      -0.00042933       0.00720311      -0.00282954
Ti       2.23906696       3.81848011      10.45794012      -0.00213373       0.00118009      -0.00155983
Ti       0.12836225       2.16436232      10.91584571      -0.00188495      -0.00311581      -0.00198118
Ti       2.30310928       6.61253366      11.17121719       0.00007470       0.00441299       0.00017064
Ti       4.15212373       4.81730376      11.82928410      -0.01362457      -0.00617909      -0.00978226
Ti       2.70210831       1.64616575      12.53860289       0.00317260       0.00071108      -0.00323507
Ti       0.37245094       7.64530253      12.53701339       0.00528984       0.00454941      -0.00450465
Ti       1.26358295       4.82715723      13.26848676       0.01425740      -0.00744972       0.00627217
Ti       3.11218038       6.62246465      13.90557481      -0.00394226      -0.00608095       0.00123128
Ti       0.62096045       2.17073084      14.15900673       0.00613438      -0.00627847       0.00130252
Ti       3.17410634       3.81683172      14.63351038      -0.00689699      -0.00266748       0.00141270
Ti       0.72562675       7.21269501      15.37867208       0.00131058       0.01223104       0.00011711
Ti       3.05919693       1.11874558      15.55759669      -0.00051802      -0.00242666       0.00010786
Ti       0.77330403       4.41485085      16.22398456       0.00283010       0.00058426      -0.00489745
Ti       3.04547915       6.09974335      16.59996029       0.00041502       0.00842225       0.00344130
Ti       0.74483454       1.68355516      17.16595233      -0.00491955      -0.01523422      -0.00002723
Ti       3.08074026       3.32311637      17.58586855       0.00040961      -0.01619182      -0.00415418
Ti       0.73241064       6.61034850      18.14966013       0.00010183       0.01069821      -0.00579868
Ti       3.07242320       0.51986610      18.47009812      -0.00147987       0.01029631      -0.00518953
V        0.75187881       3.87914918      19.11276830      -0.00219638      -0.00169468      -0.00125973
Ti       3.06833792       5.49710304      19.40740589      -0.00321047       0.00802415       0.00530252
Ti       0.75015006       1.15884603      20.02764386      -0.00131720       0.00197366      -0.00957756
Ti       3.07283816       2.78744133      20.39397642      -0.00306476      -0.00759238       0.00512518
Ti       0.72367461       6.09094466      20.91396153      -0.00367469      -0.00036261       0.00675325
Ti       3.10653895       0.01660786      21.37005935       0.00472518      -0.00144391       0.00089312
Ti       0.71828717       3.35029608      21.99465944      -0.00150328      -0.00257045       0.00151319
Ti       3.05108333       5.02003698      22.21009815       0.00416437       0.00034404      -0.00653424
Ti       0.84149863       0.62503316      22.93612356      -0.00674568      -0.00725961       0.01111890
Ti       2.94376335       2.27457699      23.40003459       0.00850225       0.00280997       0.00669543
Ti       0.78365951       5.61008264      23.64884867      -0.00754774       0.01091016       0.00459923
Ti       3.59172983       7.40130077      24.31928033       0.00831550      -0.00085929      -0.00189874
Ti       0.37038883       2.80083791      25.01946425       0.00299325       0.00488611       0.00580360
Ti       2.70351489       4.56691288      25.02216336       0.00090078      -0.00659551       0.00613230
