100
Lattice="4.4265 -2.555641 0.0 3.767997 6.526363 -0.031456 0.0 0.0 45.781652" Properties=species:S:1:pos:R:3:forces:R:3 job_name=Segregation-1sol-CSL13-Al-Al-51-d-0.00 top_level=Segregation-1sol solute=Al energy=-770.97869653 stress_kbar_3x3="_JSON [[-35.10604356, -0.4754592, 1.37200376], [-0.4754592, -37.64212783, 1.58153036], [1.3720038, 1.58153035, -16.85199097]]" pbc="T T T"
Ti       2.46357232      -0.91923256       0.01828208       0.00037045       0.00202276       0.00024769
Ti       5.75749308       1.53011254       0.00257714       0.00136949       0.00130623       0.00048265
Ti       4.97516018      -0.82503959       1.38653079       0.00372917       0.00053564      -0.00871103
Ti       4.58325055       3.75249250       1.37086271      -0.00561084       0.00141864      -0.00977132
Ti       7.09231865       3.84269882       2.63457391      -0.00260292      -0.00689870      -0.00494639
Ti       3.79832777       1.39432920       2.65022770      -0.00597587      -0.00514533      -0.00449702
Ti       1.65309777      -0.46185018       2.87520194       0.00072955       0.00942889       0.00236436
Ti       2.13159518       3.61326884       2.85985911       0.00530938       0.00554161      -0.00041869
Ti       4.71698327       3.64315035       4.16785637      -0.00078224      -0.00425167       0.00661197
Ti       4.81081536      -0.76249939       4.18235410      -0.00241334      -0.00350171       0.01032910
Ti       3.43838005       5.86283038       5.25634780      -0.00254432      -0.00584620      -0.00108771
Ti       2.94545288       1.79694691       5.27163346      -0.00287847      -0.00576673      -0.00515758
Ti       2.39972520      -0.96079393       5.75519418      -0.00408207      -0.00599349       0.00359506
Ti       5.74923496       1.45584850       5.73848319      -0.00363016      -0.00735885       0.00287634
Ti       4.27518594       3.75975931       6.96016658      -0.00837530      -0.00586692      -0.00288388
Ti       5.13215098      -1.08560426       6.97415034      -0.00462960      -0.01304075      -0.00075828
Ti       6.92216091       3.59020956       7.85126579       0.00262702      -0.00920760      -0.00712010
Ti       3.65866131       1.12187584       7.86691074      -0.00390821      -0.00957393      -0.01114286
Ti       6.36687908       0.88977123       8.61368857       0.00027289      -0.00867960       0.00233982
Ti       1.59726587      -0.70947164       8.63120389      -0.00577145      -0.00889835      -0.00083251
Ti       4.79414455       3.16684334       9.68489168      -0.00799564      -0.00253998      -0.00423972
Ti       4.36104046      -0.93222382       9.69709200      -0.00459598      -0.01118577       0.00101227
Ti       3.16297907       5.39466582      10.47618458      -0.00613592       0.00281049      -0.00464202
Ti       2.67937995       1.32663356      10.49031777       0.00130739      -0.00600216       0.00265264
Ti       5.88659502       5.18057046      11.45928267       0.00197739       0.00136427      -0.00564109
Ti       5.55876506       1.01820702      11.47320034      -0.00244468       0.00105592      -0.00018818
Ti       0.57693710       0.88937838      12.35487198      -0.00004333       0.00269195       0.00141293
Ti       3.83891989       3.35856450      12.34396914       0.00169143      -0.00187201      -0.00096726
Ti       3.26996494       0.64690961      13.18285412      -0.00034871       0.00755204       0.00375775
Ti       6.70423081       3.01380376      13.16820831      -0.00596311       0.00212547      -0.00397641
Ti       5.07270969       5.35470073      14.31598457       0.00336417       0.00708676      -0.00053246
Ti       6.11253093       0.40247286      14.33456059       0.00134321       0.00204345      -0.00758877
Ti       4.52019057       2.61677103      14.94037587      -0.00019808       0.00321299      -0.00390205
Ti       4.01746644      -1.44123037      14.94971227       0.00381068       0.00523375       0.00334988
Ti       7.11335896       2.53752169      15.92643643       0.00346410       0.00560374      -0.00448336
Ti       2.65197118       0.76561721      15.94210176       0.00220872       0.00661247      -0.00537021
Ti       5.76827227       4.80980966      17.21031457       0.00089521       0.00794645      -0.00781974
Ti       5.30091057       0.71643272      17.22577258      -0.00174223       0.00913062      -0.00267938
Ti       3.62224215       2.96370562      17.53877452       0.00516257       0.00028901      -0.01066701
Ti       0.33245679       0.48965659      17.54096255       0.00461190       0.00281818      -0.00302429
Ti       2.85211796       0.57420585      18.74039240       0.00280702       0.01021366       0.00399962
Ti       6.82338178       2.61465191      18.73554056      -0.00108856       0.00089571       0.00395219
Ti       4.92134140       5.26166001      20.06916758       0.01157961       0.00098950       0.00492743
Ti       1.65810022       2.77834107      20.08391920      -0.00829982       0.00407622       0.00726203
Ti       4.40007369       2.46840194      20.17299988      -0.00705637       0.01034434      -0.00569471
Ti       3.91671554      -1.62233084      20.16729232      -0.00395235       0.00034808       0.00178414
Ti       6.88015914       2.60074937      21.51219829       0.00145369       0.00100816       0.00679688
Ti       2.81009569       0.57391533      21.52321663       0.00453123      -0.00572283      -0.01274475
Ti       3.66797638       2.91893298      22.84802156      -0.01827909       0.00335890      -0.00135334
Ti       4.69073379      -2.06292412      22.85152809       0.01367774       0.00232735      -0.00156748
Ti       5.70433507       4.79250942      22.87621081       0.00223362      -0.01860940       0.00078654
Al       5.32802851       0.64417800      22.95249771      -0.00537994       0.01353634       0.01028573
Ti       2.76606789       0.59106882      24.24827843       0.00317292      -0.00238055       0.01372895
Ti       6.94045713       2.60169946      24.23356023       0.00315277       0.00070943      -0.00633123
Ti       3.96543924      -1.59669538      25.55746959       0.00114805       0.00290615      -0.00457719
Ti       4.44167581       2.44249250      25.51242970      -0.00609896       0.00817347      -0.00190784
Ti       1.71260213       2.78186688      25.75708932      -0.00056054       0.00456558       0.00179874
Ti       4.95839618       5.24753506      25.70030444       0.01849522       0.00041269       0.00286519
Ti       2.92469536       0.55703893      27.04352244       0.00898095       0.00791865      -0.00065611
Ti       6.82532184       2.65582710      27.00912191       0.00039632       0.00474549      -0.00082889
Ti       0.36654730       0.52184595      28.18894093       0.00596884       0.00444294      -0.00005554
Ti       3.66764465       3.00061989      28.14830202       0.00846613       0.00603423       0.00599055
Ti       5.35745690       0.73142872      28.57552241       0.00723069       0.00268003       0.00296086
Ti       5.78457742       4.84451573      28.55932055       0.00709791       0.00674236       0.01047384
Ti       7.18992731       2.55768237      29.81353330       0.01297182       0.00800944       0.00626178
Ti       2.64269904       0.83038265      29.83012193      -0.00071048       0.00866418       0.00878930
Ti       4.56614234       2.68311959      30.75228944       0.00211234       0.00486867      -0.00123226
Ti       4.07118061      -1.36860605      30.77543935       0.00614184       0.00743358      -0.01145570
Ti       6.14112908       0.47026592      31.45025284       0.00275482       0.00305673       0.00896240
Ti       5.12858134       5.40118860      31.43484244       0.00398459       0.00622250       0.00172793
Ti       3.34157795       0.70159849      32.56707081       0.00115578       0.00847534      -0.00411572
Ti       6.71902139       3.10298215      32.55227018      -0.00323639       0.00355711       0.00265253
Ti       3.89875224       3.43990028      33.35901082       0.00645921      -0.00177084      -0.00283264
Ti       0.62040465       0.97485270      33.38045943      -0.00100524       0.00032291      -0.00319304
Ti       5.92843222       5.26403052      34.29507825       0.00232691       0.00026272       0.00850394
Ti       5.61004725       1.09331682      34.30951886       0.00038331       0.00005286       0.00196327
Ti       3.21862130       5.47256090      35.22141749      -0.00410357       0.00204426       0.00161984
Ti       2.72145035       1.41692384      35.23518809       0.00150383      -0.00620941       0.00007508
Ti       4.80767053       3.26006829      36.03473865      -0.00495395      -0.00359277       0.00221739
Ti       4.43731498      -0.87666386      36.05426525      -0.00394729      -0.00808439      -0.00129791
Ti       6.40687541       0.94682133      37.17472343       0.00031316      -0.00834244       0.00143825
Ti       1.62480544      -0.64628726      37.19111599      -0.00293730      -0.00697807       0.00043371
Ti       6.96954560       3.66590450      37.82071586       0.00222578      -0.00957776       0.00125317
Ti       3.69872148       1.19951295      37.83487796      -0.00224949      -0.00866727       0.00526069
Ti       4.35867999       3.77302953      38.78161331      -0.00226870      -0.00551992       0.00336781
Ti       5.10131990      -1.00539773      38.79965740      -0.00574791      -0.00829825       0.00248328
Ti       5.74812048       1.48510133      40.06343778      -0.00281162      -0.00642982      -0.00141217
Ti       2.42519718      -0.94772654      40.07959098      -0.00175414      -0.00410518      -0.00135542
Ti       3.45176712       5.89514689      40.41371407       0.00022620      -0.00191611      -0.00313146
Ti       2.96774938       1.82404801      40.42912893      -0.00491713      -0.00067413       0.00155065
Ti       4.67959027       3.67630533      41.58813605      -0.00150969      -0.00200681      -0.00572365
Ti       4.85914007      -0.77850986      41.60518706      -0.00085983      -0.00439108      -0.00985255
Ti       2.13314706       3.61425408      42.93008008       0.00498841       0.00871705       0.00214549
Ti       1.65340558      -0.46026750      42.94592341       0.00265819       0.01178558      -0.00032361
Ti       7.09646653       3.84469164      43.05425839      -0.00487924      -0.00827957       0.00338915
Ti       3.79788488       1.39868566      43.06978526      -0.00567865      -0.00900570       0.00252301
Ti       4.60359717       3.74019619      44.37477970      -0.00341942       0.00185990       0.01131237
Ti       4.95459970      -0.81345325      44.39059107       0.00185434       0.00122061       0.00977021
Ti       3.47041226       5.94706488      45.74034613       0.00223605      -0.00835410      -0.00125050
Ti       3.00592475       1.86427145      45.75586380      -0.00855587      -0.00026792      -0.00040339
