100
Lattice="4.4265 -2.555641 0.0 3.767997 6.526363 -0.031456 0.0 0.0 45.781652" Properties=species:S:1:pos:R:3:forces:R:3 job_name=Segregation-1sol-CSL13-V-V-51-d-0.00 top_level=Segregation-1sol solute=V energy=-775.41369159 stress_kbar_3x3="_JSON [[-38.74620408, -2.35927857, 0.64311246], [-2.35927861, -39.46461342, 1.11830479], [0.64311249, 1.11830478, -17.45726014]]" pbc="T T T"
Ti       2.46283853      -0.92370834       0.01965326      -0.00336367      -0.00208262       0.00140291
Ti       5.75467400       1.52649220       0.00391185       0.00087242      -0.00226273       0.00140762
Ti       4.97463176      -0.82969079       1.38732060      -0.00060910      -0.00437850      -0.00076553
Ti       4.58010031       3.74872842       1.37177942      -0.00340184      -0.00280787      -0.00256707
Ti       7.08960268       3.83754778       2.63248669       0.00004561      -0.00590708       0.00231963
Ti       3.79636539       1.38753945       2.64895480      -0.00354954      -0.00250415      -0.00061189
Ti       1.65059371      -0.46699692       2.87763681      -0.00161331      -0.00153181       0.00190764
Ti       2.12988526       3.60740658       2.86133236      -0.00034189      -0.00233668       0.00298904
Ti       4.71583235       3.63144314       4.16919454       0.00139943      -0.00385709      -0.00189232
Ti       4.80591999      -0.77104081       4.18483009      -0.00465316      -0.00228464       0.00240090
Ti       3.43320119       5.84851827       5.25555217      -0.00047845      -0.00032436      -0.00131433
Ti       2.94104599       1.78247383       5.27221561       0.00071674      -0.00301893      -0.00469643
Ti       2.39428472      -0.97623663       5.75781969       0.00433163       0.00138153       0.00261101
Ti       5.74443953       1.44073593       5.74257951      -0.00035281       0.00242267       0.00247250
Ti       4.26882132       3.74270426       6.95926497       0.00139519       0.00055062       0.00306983
Ti       5.12743044      -1.10414908       6.97511975      -0.00042259       0.00201904       0.00279361
Ti       6.91808045       3.57260697       7.85197190      -0.00017036       0.00354388       0.00047994
Ti       3.65647155       1.10435999       7.86719111       0.00050332       0.00211351       0.00135972
Ti       6.36310045       0.87129919       8.61524337       0.00110863       0.00256074      -0.00011338
Ti       1.59477503      -0.72621798       8.63110057      -0.00093290       0.00500787      -0.00100231
Ti       4.78609318       3.16304451       9.68585492       0.00439427      -0.00594757       0.00067817
Ti       4.36741774      -0.94738705       9.70308150      -0.00276918       0.00097863       0.00119925
Ti       3.16512568       5.39424418      10.47965980      -0.00016704      -0.00260253      -0.00564844
Ti       2.68584677       1.32068505      10.49483178      -0.00861625      -0.00065228      -0.00344466
Ti       5.88889475       5.18494410      11.45040916      -0.00145164      -0.00034747      -0.00230353
Ti       5.56763057       1.02023053      11.46717442      -0.00265124      -0.00261704      -0.00361924
Ti       0.58515056       0.89913343      12.36980805       0.00208790      -0.00302444      -0.00352057
Ti       3.84822292       3.36401310      12.35077229      -0.00016061      -0.00047119      -0.00220398
Ti       3.28907543       0.64906487      13.18486050      -0.00065145       0.00090070      -0.00113654
Ti       6.70812419       3.02593540      13.17064525       0.00185702      -0.00126698      -0.00482037
Ti       5.08926671       5.36049745      14.30301845       0.00507796       0.00062854       0.00081767
Ti       6.11811363       0.41674343      14.32261336       0.00089458       0.00309960      -0.00407370
Ti       4.53656113       2.63446349      14.95241376       0.00220165       0.00246109       0.00619662
Ti       4.03366658      -1.42443111      14.97445631      -0.00005279       0.00082273       0.00325542
Ti       7.14303333       2.53723394      15.92358407       0.00013112      -0.00076065       0.00514950
Ti       2.64366319       0.78780389      15.93657231       0.00524474       0.00167355       0.00155973
Ti       5.76412757       4.82380310      17.18202837       0.00136894      -0.00219956       0.00830672
Ti       5.31149341       0.73721933      17.21070262      -0.00760620      -0.00138930      -0.00117737
Ti       3.63021617       2.96941323      17.54921453      -0.00182772      -0.00510758       0.00302259
Ti       0.34979390       0.51562126      17.57225355      -0.00783346       0.00588153       0.00237521
Ti       2.88412406       0.57046993      18.73795660       0.01123884       0.00913864      -0.00977229
Ti       6.83038254       2.62856912      18.72859193       0.00125051       0.00327014      -0.00029482
Ti       4.94860829       5.24342208      20.04157891      -0.00081397      -0.00216818      -0.00073044
Ti       1.67077444       2.79857133      20.12568896      -0.00216193       0.00711705      -0.01724493
Ti       4.42567354       2.45877184      20.19994594       0.01152880       0.01255483      -0.00701670
Ti       3.95433008      -1.61779315      20.20170735       0.00065870       0.00029002       0.00195599
Ti       6.88860710       2.57260736      21.52170442       0.00505005      -0.00357688      -0.00342225
Ti       2.82442000       0.58417293      21.50783042      -0.01214091       0.00541978       0.01098101
Ti       3.57879898       2.89958744      22.87075380      -0.00007730      -0.01031081      -0.00202637
Ti       4.75172921      -1.92979180      22.88335018       0.00428668      -0.01114889      -0.00273853
Ti       5.69090143       4.81499097      22.86837084      -0.00303769       0.00690517      -0.00164837
V        5.29700993       0.75210035      22.88226098       0.01183973       0.00496657      -0.00022061
Ti       2.82169772       0.59101570      24.25936650      -0.01046192       0.00773282      -0.01095850
Ti       6.89436033       2.57262797      24.21525177       0.00557045      -0.00482217      -0.00013164
Ti       3.96007483      -1.60627295      25.56084244      -0.00000791      -0.00037333       0.00078973
Ti       4.43322112       2.46737149      25.53591829       0.01153289       0.01121676       0.00990481
Ti       1.67849569       2.80938277      25.63921221      -0.00045839       0.00738208       0.01380988
Ti       4.95429869       5.25367947      25.69540960       0.00176100       0.00061259       0.00050621
Ti       2.90746154       0.57946933      27.03538488       0.01070437       0.00960863       0.00833526
Ti       6.82831529       2.65381023      27.01269431       0.00086639      -0.00335481       0.00216058
Ti       0.36805643       0.54392068      28.17771231      -0.00755262       0.00790485       0.00251284
Ti       3.64471430       2.99768218      28.17295199      -0.00207571      -0.00256904      -0.00037809
Ti       5.33551008       0.76003012      28.55831556      -0.00913470      -0.00408673       0.00175473
Ti       5.77070577       4.85602109      28.55690275      -0.00264440      -0.00450903      -0.00898459
Ti       7.18817851       2.55992444      29.81590562       0.00007572      -0.00035421      -0.00322453
Ti       2.64011072       0.83920037      29.83459037       0.00500558       0.00072227       0.00076928
Ti       4.56822083       2.69100477      30.75940114       0.00253536       0.00325783      -0.00581387
Ti       4.06752059      -1.36851794      30.76815082      -0.00221570       0.00046193      -0.00613263
Ti       6.13467606       0.47413821      31.44664430       0.00086381       0.00129333       0.00347375
Ti       5.12979570       5.40359483      31.43543022       0.00757012       0.00001483      -0.00288866
Ti       3.34488945       0.69740246      32.57003450      -0.00015192       0.00143039      -0.00028855
Ti       6.72254754       3.09942335      32.55322064      -0.00094747      -0.00039103       0.00259149
Ti       3.89618061       3.43350771      33.36174031      -0.00060803      -0.00097975       0.00115015
Ti       0.62120092       0.97570034      33.37398823       0.00257650      -0.00533037       0.00052311
Ti       5.92396301       5.25756536      34.29673678      -0.00010321      -0.00100348       0.00382427
Ti       5.61239468       1.08716019      34.31151830      -0.00355199      -0.00017026       0.00474631
Ti       3.21687260       5.46553216      35.22032023      -0.00056487       0.00078812       0.00584423
Ti       2.72137875       1.40175398      35.23652971      -0.00645533      -0.00013281       0.00266130
Ti       4.79981728       3.24980258      36.03718682       0.00262939      -0.00686730       0.00195055
Ti       4.43518110      -0.89168461      36.05143396      -0.00175314      -0.00197723       0.00335865
Ti       6.40229677       0.92691339      37.17546446       0.00302928       0.00138717       0.00232561
Ti       1.62230054      -0.66369764      37.19126501       0.00019175       0.00495787       0.00205806
Ti       6.96502348       3.64622155      37.82146090      -0.00005004       0.00288594       0.00100157
Ti       3.69617599       1.18234242      37.83761640      -0.00098259       0.00094550       0.00052143
Ti       4.35355183       3.75708620      38.78415360      -0.00080350       0.00089710      -0.00183780
Ti       5.09689627      -1.02342861      38.80038839      -0.00002122       0.00120730      -0.00501859
Ti       5.74406319       1.47170098      40.06344073      -0.00177362       0.00144111      -0.00354512
Ti       2.42158853      -0.96106846      40.07935533       0.00305967      -0.00037315      -0.00264937
Ti       3.44870652       5.88286640      40.41604204      -0.00321667       0.00040010      -0.00292840
Ti       2.96310457       1.81271347      40.43086559       0.00277654      -0.00407104       0.00102600
Ti       4.67804516       3.66701931      41.58890889       0.00046002      -0.00441916       0.00178688
Ti       4.85584681      -0.78628297      41.60512135      -0.00502761      -0.00172013      -0.00259390
Ti       2.13206209       3.60919610      42.93170119      -0.00287909      -0.00301039      -0.00191073
Ti       1.65120925      -0.46446645      42.94698977      -0.00081346      -0.00321412      -0.00068110
Ti       7.09393894       3.83972094      43.05713574      -0.00079101      -0.00514079      -0.00274995
Ti       3.79620637       1.39222953      43.07221312      -0.00202249      -0.00191652      -0.00065024
Ti       4.60140412       3.73631097      44.37618085      -0.00195987      -0.00227084       0.00303096
Ti       4.95323935      -0.81750868      44.39225303      -0.00040110      -0.00311123       0.00081760
Ti       3.46970971       5.94179538      45.74063176      -0.00165548      -0.00012069      -0.00050718
Ti       3.00244028       1.86046214      45.75627243       0.00230076       0.00092050      -0.00004708
