64
Lattice="5.872 0.0 0.0 0.0 6.890708 0.0 0.0 0.0 27.394398" Properties=species:S:1:pos:R:3:forces:R:3 job_name=Segregation-1sol-T1g-V-V-49-d-6.96 top_level=Segregation-1sol solute=V energy=-495.72119954 stress_kbar_3x3="_JSON [[-12.89543107, -9.762e-05, 0.00012357], [-9.762e-05, -13.75198767, -1.32684232], [0.00012357, -1.3268423, -19.6763555]]" pbc="T T T"
Ti       4.40390214       5.20620111      27.37168728       0.00018984       0.00034470      -0.00800824
Ti       1.46807076       5.20743666      27.36549004      -0.00003658      -0.00163011      -0.01112814
Ti       0.00068639       3.18843688       1.27583750      -0.00247106      -0.00566800      -0.00270149
Ti       2.93534748       3.18838138       1.27584900       0.00229574      -0.00564378      -0.00260526
Ti       0.00273830       6.62590240       1.89448279      -0.00089376      -0.00273265      -0.01177020
Ti       2.93323625       6.62595138       1.89454989       0.00089449      -0.00270048      -0.01184110
Ti       4.40401993       1.76414617       3.18361212      -0.00003485       0.00090452      -0.00199442
Ti       1.46793706       1.76544531       3.18342998       0.00003164       0.00156357      -0.00179627
Ti       1.46798789       4.59144829       3.40104460      -0.00002573      -0.00640762       0.00230882
Ti       4.40400665       4.59119965       3.40041741       0.00002551      -0.00601577       0.00220383
Ti      -0.00010033       6.72323236       4.71336152      -0.00055658      -0.00286596       0.00444832
Ti       2.93605717       6.72319789       4.71335422       0.00047037      -0.00274881       0.00453159
Ti       2.93617739       2.87457162       5.32439534       0.00056312      -0.00289630      -0.00201937
Ti       5.87172724       2.87452697       5.32442956      -0.00045329      -0.00288422      -0.00207777
Ti       4.40394289       5.00578512       6.48428310      -0.00003844      -0.00042237      -0.00161880
Ti       1.46798152       5.00607460       6.48533626       0.00004089      -0.00020633      -0.00208665
Ti       4.40396503       0.93127151       6.96131153       0.00007195      -0.00434810      -0.00391087
Ti       1.46794458       0.93151389       6.96181188       0.00000369      -0.00467222      -0.00390166
Ti       2.93607077       3.09079685       8.14571420      -0.00019393       0.00072415      -0.00340032
Ti       5.87188269       3.09074986       8.14573981       0.00017330       0.00073665      -0.00328135
Ti       2.93622022       6.02530379       8.74673569       0.00012424      -0.00065918      -0.00560772
Ti       5.87173367       6.02538395       8.74676458      -0.00015404      -0.00079858      -0.00570643
Ti       4.40401563       1.29517366       9.92999847      -0.00003170       0.00231258       0.00077583
Ti       1.46797435       1.29489755       9.93179730       0.00011267       0.00223438       0.00028587
Ti       4.40390915       4.10956884      10.40677975       0.00025510      -0.00060969       0.00251388
Ti       1.46806057       4.10952819      10.40611627      -0.00011031      -0.00026067       0.00233070
Ti       2.93575533       6.23958689      11.56518821      -0.00024218       0.00331828       0.01153482
Ti       0.00025849       6.23961058      11.56520062       0.00032318       0.00320413       0.01138600
Ti       2.93832236       2.39514813      12.17624757       0.00144527      -0.00092558       0.00589337
Ti       5.86974833       2.39511134      12.17613950      -0.00128729      -0.00096240       0.00622451
Ti       1.46813402       4.52318672      13.49141856       0.00001748       0.00740643       0.00845060
Ti       4.40413395       4.52458898      13.49219315      -0.00011302       0.00820420       0.00733254
Ti       4.40408422       0.46001304      13.70587587      -0.00013059      -0.00326611       0.01063194
Ti       1.46800294       0.45606343      13.70258759       0.00008227       0.00037041       0.01110710
Ti       5.86920642       2.48669236      15.00201306      -0.00230848      -0.00260276       0.00934785
Ti       2.93891132       2.48668065      15.00200481       0.00246182      -0.00269322       0.00947729
Ti       0.01045788       5.92737986      15.61580163      -0.00031302       0.01168238      -0.00720468
Ti       2.92572645       5.92741266      15.61588094       0.00021223       0.01161916      -0.00761626
Ti       4.40405793       3.91102641      16.90176575      -0.00011905       0.00268439      -0.00674693
Ti       1.46804254       3.90194593      16.93401344      -0.00003425      -0.00224291       0.00274742
Ti       4.40414083       1.08097703      17.13426708      -0.00002406       0.00344684      -0.00967710
Ti       1.46811784       1.07669372      17.12073176       0.00001832       0.00767491      -0.01281684
Ti       5.85388907       5.83386495      18.45767194      -0.00642112      -0.00146480       0.00514274
Ti       2.95423225       5.83387318      18.45772239       0.00641167      -0.00132458       0.00528730
Ti       2.97482140       2.82957115      19.05217680       0.00174817       0.00704212      -0.00210270
Ti       5.83323438       2.82961599      19.05226412      -0.00172825       0.00710791      -0.00246986
Ti       4.40400089       0.63341527      20.17271722      -0.00006438      -0.00593428      -0.00672803
Ti       1.46792799       0.71490834      20.19804051       0.00017107       0.00039465      -0.00485038
Ti       1.46797002       4.75905849      20.64518334      -0.00008190       0.00876549      -0.00439822
V        4.40413072       4.74260739      20.64970516      -0.00014675       0.00458940      -0.00560626
Ti       2.97097291       2.62005821      21.83070337       0.00544721       0.00962205       0.00391346
Ti       5.83698149       2.62008437      21.83072910      -0.00542260       0.00964588       0.00408074
Ti       2.94013538       6.49704446      22.39748037       0.00678250      -0.01006838      -0.00349875
Ti       5.86789162       6.49697880      22.39776104      -0.00690690      -0.01006039      -0.00397554
Ti       4.40400132       4.36981303      23.59790111       0.00011222      -0.00463419      -0.00171217
Ti       1.46790448       4.37751710      23.63442982      -0.00003288      -0.00350627       0.00290626
Ti       4.40393007       1.53983487      24.06300706       0.00004458       0.00323578       0.01466885
Ti       1.46800096       1.54312908      24.04502496       0.00001944       0.00227072       0.01282644
Ti       2.93568422       6.32317509      25.23239298       0.00132270       0.00439190       0.00597745
Ti       0.00028181       6.32310457      25.23251171      -0.00139487       0.00436304       0.00580836
Ti       5.86688372       3.26408917      25.84571930       0.00203573      -0.00974345       0.00058361
Ti       2.94108600       3.26409154      25.84575789      -0.00203738      -0.00990921       0.00048142
Ti       1.46806475       1.14018351      27.16768157       0.00004594      -0.00261618      -0.00355053
Ti       4.40402427       1.14158726      27.17081985      -0.00014513      -0.00373512      -0.00679858
