52
Lattice="4.6568 0.0 0.0 0.0 7.770572 0.0 0.0 0.0 25.044546" Properties=species:S:1:pos:R:3:forces:R:3 job_name=Segregation-1sol-CSL7-V-V-39-d-6.91 top_level=Segregation-1sol solute=V energy=-401.38452532 stress_kbar_3x3="_JSON [[-19.5672744, 0.02460651, 0.04995706], [0.02460648, -25.07258643, 0.25398599], [0.04995706, 0.253986, -23.35023651]]" pbc="T T T"
Ti       1.82314668       7.38039066       0.69882187       0.00449361       0.00006605      -0.00572494
Ti       4.62429748       5.59697653       1.34379753      -0.00127538      -0.00210126      -0.00433500
Ti       2.45980369       2.27513718       1.60241906       0.00205272       0.00254880       0.00196064
Ti       4.56431800       0.61873136       2.06944022      -0.00031699       0.00008170       0.00053033
Ti       2.35113877       5.00641796       2.80453232       0.00007610       0.00171269       0.00146626
Ti       0.02086165       3.33570944       3.00817384       0.00021076       0.00013703      -0.00018630
Ti       2.31122712       0.01197337       3.64427928      -0.00002066      -0.00291396       0.00163147
Ti       0.02777244       6.10301936       4.07604837      -0.00023295       0.00143386       0.00441628
Ti       2.33834214       2.76681684       4.59372719      -0.00151736      -0.00055162       0.00370992
Ti       0.00283041       1.11625987       4.98891013      -0.00032955       0.00042373      -0.00058065
Ti       2.34368711       5.56727376       5.60684178      -0.00009513       0.00030335       0.00408097
Ti       0.00557673       3.87413887       5.94522034       0.00027422      -0.00042843      -0.00005967
Ti       2.33401548       0.56615859       6.57500319      -0.00037501       0.00089854       0.00165971
Ti       0.01532278       6.64224566       6.90702866      -0.00007373       0.00067308       0.00080636
Ti       2.33004513       3.32378848       7.52995924      -0.00001089      -0.00069209       0.00250250
Ti       0.00938121       1.67463588       7.92523298      -0.00203249       0.00158010      -0.00242235
Ti       2.35698821       6.10625944       8.43759420      -0.00016754       0.00031000       0.00046012
Ti       4.63681031       4.42956679       8.87621993       0.00016419       0.00139740      -0.00113217
Ti       2.35127560       1.10352500       9.51409336       0.00006817       0.00025769       0.00131458
Ti       0.02551921       7.20230966       9.70494215      -0.00038324      -0.00169008      -0.00073187
Ti       2.23857042       3.81747794      10.44549554      -0.00010047       0.00010930       0.00152706
Ti       0.12644584       2.16600617      10.91373918       0.00254533       0.00098239      -0.00183334
Ti       2.30192961       6.61268318      11.16932864      -0.00179542       0.00184335       0.00039998
Ti       4.14070996       4.82357211      11.82553133       0.00388227      -0.00161094       0.00660693
Ti       2.70663729       1.63700470      12.53160324       0.00357880      -0.00216723      -0.00693999
Ti       0.37396281       7.63939523      12.54027322       0.00100897      -0.00289726      -0.00123515
Ti       1.26850407       4.81867441      13.23852153      -0.00571853       0.00078338      -0.00570061
Ti       3.10398208       6.61033556      13.92041381      -0.00166690       0.00057311       0.00121009
Ti       0.62376662       2.15833361      14.14415078       0.00211039       0.00168340      -0.00284551
Ti       3.17176042       3.81329410      14.61964084      -0.01015871       0.00343222      -0.00402657
Ti       0.72300661       7.19943368      15.38639617       0.00262228      -0.00667984       0.00323548
Ti       3.05709678       1.10821320      15.56271435      -0.00019101       0.00846428      -0.00240826
Ti       0.78611975       4.41114433      16.15170123       0.00181241      -0.00280762      -0.00623963
Ti       3.05220992       6.07849067      16.67040677       0.00118929       0.00157465       0.00818676
Ti       0.74442898       1.67853217      17.14447764       0.00265804       0.00152865       0.00593619
Ti       3.07691238       3.33229776      17.54768399      -0.00071148      -0.00287348       0.00081306
Ti       0.72974056       6.61716627      18.16855177      -0.00069645      -0.00074668       0.00215578
Ti       3.07190832       0.54099501      18.48877596       0.00029785      -0.00124094      -0.00259938
Ti       0.74632264       3.93599595      19.12223248       0.00074895      -0.00416389       0.00066474
V        3.05423553       5.59341719      19.42892531       0.00113534      -0.00118621       0.00420869
Ti       0.75706862       1.15330763      20.05469441       0.00055406       0.00103261      -0.00099926
Ti       3.06668137       2.77201334      20.44166121       0.00394529       0.00302391      -0.00332218
Ti       0.73508108       6.11035843      20.89538824       0.00282603       0.00072442      -0.00368217
Ti       3.11409429       0.00376648      21.37933755      -0.00113349       0.00082476      -0.00210738
Ti       0.70951644       3.32199506      22.06307082      -0.00031286      -0.00279736       0.00328400
Ti       3.04051906       5.02038917      22.12118097       0.00384961       0.00015268      -0.00121786
Ti       0.84453746       0.62349495      22.96109591      -0.00656262      -0.00568497       0.00234967
Ti       2.95379725       2.26559134      23.41076924      -0.00083301      -0.00544736      -0.00180769
Ti       0.77910092       5.61421313      23.63961897      -0.00366639       0.00042513      -0.00290160
Ti       3.58696559       7.38601930      24.31138119       0.00039042       0.00186611       0.00169832
Ti       0.38430058       2.80068975      25.03233548       0.00040095       0.00256168       0.00347755
Ti       2.71861752       4.56500614      24.99423890      -0.00251778       0.00527120      -0.00525391
