52
Lattice="4.6568 0.0 0.0 0.0 7.770572 0.0 0.0 0.0 25.044546" Properties=species:S:1:pos:R:3:forces:R:3 job_name=Segregation-1sol-CSL7-Al-Al-37-d-5.94 top_level=Segregation-1sol solute=Al energy=-397.4392004 stress_kbar_3x3="_JSON [[-15.04752982, -0.20107475, 0.60026642], [-0.20107475, -26.27135418, -0.10638293], [0.60026641, -0.10638294, -17.82330831]]" pbc="T T T"
Ti       1.82019923       7.39446410       0.70002397      -0.00672849       0.00157473       0.00455414
Ti       4.63149040       5.59450380       1.36352963       0.00520711      -0.00122823      -0.00066602
Ti       2.45777564       2.27106800       1.61340162       0.00229448      -0.00477804       0.00175817
Ti       4.56199526       0.61810891       2.07061670       0.00001229      -0.00200314      -0.00083064
Ti       2.35697671       5.00917758       2.82633381      -0.00147656       0.00182120      -0.00012342
Ti       0.02238022       3.33294057       3.00849708       0.00164194      -0.00646148       0.00018533
Ti       2.30491519       0.01033807       3.64676257       0.00238501      -0.00152867      -0.00251210
Ti       0.02565615       6.10276689       4.08618583       0.00125278       0.00159348      -0.00124031
Ti       2.33921869       2.76321936       4.59802259       0.00143742       0.00233160      -0.00133838
Ti       0.00092587       1.11846009       4.98954342       0.00169807      -0.00066707      -0.00136150
Ti       2.34428001       5.56716290       5.61338673       0.00115629      -0.00152325      -0.00019179
Ti       0.00606774       3.87316155       5.94483522       0.00155775       0.00090802      -0.00202873
Ti       2.33497839       0.56721412       6.57577692       0.00105454       0.00022206       0.00143799
Ti       0.01654965       6.64321512       6.90530689       0.00119940       0.00330062       0.00478579
Ti       2.32849659       3.32316238       7.52889742       0.00153193       0.00028841       0.00052212
Ti       0.01017073       1.67889474       7.92347871       0.00179488      -0.00180610       0.00247313
Ti       2.35733628       6.10793908       8.43342231       0.00098528       0.00060386      -0.00086948
Ti       4.63230751       4.42971467       8.87280330       0.00082639      -0.00058053       0.00036714
Ti       2.35670212       1.10618720       9.51032614       0.00133042      -0.00209488       0.00193060
Ti       0.02793536       7.20335804       9.69163150      -0.00076608      -0.00533563      -0.00222203
Ti       2.23616867       3.81867495      10.43807465       0.00149216      -0.00286305       0.00006823
Ti       0.13222367       2.16800726      10.91365976       0.00221268       0.00022158       0.00181229
Ti       2.29985362       6.61312699      11.15225796       0.00067138      -0.00175389      -0.00032936
Ti       4.13962575       4.81021378      11.82135580      -0.01458290      -0.00746791      -0.00614088
Ti       2.69730254       1.64805508      12.53224780      -0.00162462      -0.00837172       0.00243966
Ti       0.35800683       7.64456682      12.50030607      -0.00347269       0.00115545       0.00312682
Ti       1.26109346       4.79039406      13.23123643       0.00992875      -0.00414245       0.00719233
Ti       3.10587780       6.60503512      13.87221169      -0.00047005      -0.00449419      -0.00641533
Ti       0.61837150       2.14582632      14.16339730      -0.00471303      -0.00380646      -0.00271571
Ti       3.16471790       3.81249799      14.63704438      -0.00252874      -0.00688109       0.00240512
Ti       0.74068076       7.15065084      15.28503626      -0.00202478       0.00504863       0.00768893
Ti       3.06936683       1.06225239      15.56554835      -0.00111861       0.00494762      -0.00360822
Ti       0.76594043       4.42255758      16.20530791       0.00008048      -0.00298194       0.00437566
Ti       3.05867380       6.13297170      16.62527384      -0.00124485      -0.00322350       0.00493466
Ti       0.74357499       1.63830643      17.14512135      -0.00195969       0.00377552       0.00228181
Ti       3.08605056       3.32520121      17.54921578      -0.00090253       0.00439507      -0.00430155
Ti       0.73732363       6.72863841      18.12979062      -0.00071457       0.00879058       0.00401306
Al       3.06793424       0.59895704      18.47069578      -0.00184886       0.00197429      -0.00050484
Ti       0.74085859       3.97300786      19.11276211      -0.00058987      -0.00327263      -0.00543259
Ti       3.07398801       5.65763570      19.44224276      -0.00216083      -0.00465033      -0.00370051
Ti       0.73084102       1.12141411      20.00311567       0.00082490       0.00529120      -0.01039963
Ti       3.06798308       2.78841393      20.40651255       0.00042436       0.00998967       0.01166562
Ti       0.72343633       6.08617660      21.00681817      -0.00004419       0.01331060       0.00011375
Ti       3.09931461       0.02045824      21.36502805      -0.00423978       0.01474253       0.00815142
Ti       0.74085905       3.30514813      22.01881430       0.00170243      -0.00798556       0.00213712
Ti       3.05671008       4.99008851      22.22035418       0.00301644      -0.00405462      -0.00069144
Ti       0.85410940       0.60790934      22.94781087       0.00407340       0.00707219      -0.00124452
Ti       2.95626523       2.26672562      23.42124377      -0.00276247      -0.00330659      -0.00479724
Ti       0.78767065       5.57014441      23.68477786      -0.00485712       0.00429308       0.00211173
Ti       3.58936566       7.38053693      24.31833501       0.00734637       0.01070202      -0.01256937
Ti       0.37384935       2.78000617      -0.00368427      -0.00159279      -0.00310208      -0.00603465
Ti       2.70649515       4.55198595       0.00383519       0.00328480      -0.00798896      -0.00026241
