52
Lattice="4.6568 0.0 0.0 0.0 7.770572 0.0 0.0 0.0 25.044546" Properties=species:S:1:pos:R:3:forces:R:3 job_name=Segregation-1sol-CSL7-V-V-35-d-4.99 top_level=Segregation-1sol solute=V energy=-401.35691118 stress_kbar_3x3="_JSON [[-19.46691431, 0.32837894, -0.18217383], [0.32837895, -26.66478973, 1.04737608], [-0.18217381, 1.04737612, -22.04124147]]" pbc="T T T"
Ti       1.81597447       7.39343475       0.69636964       0.01171953       0.00191906      -0.00799488
Ti       4.63010256       5.59584850       1.35461796      -0.00240140      -0.00237992       0.00032633
Ti       2.45990235       2.27493150       1.59960059       0.00131692      -0.00095926       0.00141540
Ti       4.56784732       0.62114085       2.07005163      -0.00172819       0.00758204       0.00298632
Ti       2.35672974       5.00953003       2.81622171       0.00323402      -0.00177240      -0.00117846
Ti       0.02423667       3.33519989       3.00688519       0.00158034      -0.00098362       0.00137887
Ti       2.31096802       0.01274550       3.64259991       0.00246531       0.00033589      -0.00062528
Ti       0.03104101       6.10281388       4.08298109       0.00203656      -0.00013478       0.00284749
Ti       2.34138851       2.76510494       4.59764756       0.00176389      -0.00162175       0.00057979
Ti       0.00565756       1.11569617       4.99043985       0.00199145      -0.00217137       0.00048204
Ti       2.34798991       5.56679589       5.61195952       0.00248482      -0.00236846       0.00160842
Ti       0.01143343       3.87191929       5.95005827       0.00193908      -0.00231614       0.00081420
Ti       2.33808421       0.56487930       6.57677477       0.00299347      -0.00294205       0.00092681
Ti       0.02146191       6.63852046       6.91111473       0.00253303      -0.00313464       0.00087932
Ti       2.33456102       3.31907629       7.53880441       0.00171271      -0.00290625       0.00065905
Ti       0.01330798       1.66909418       7.92619316       0.00266626      -0.00257902      -0.00029897
Ti       2.36028265       6.10151180       8.43925194       0.00129328      -0.00480392      -0.00098804
Ti       4.64289337       4.42414084       8.88803888       0.00180851      -0.00504014       0.00077407
Ti       2.35322007       1.09644461       9.51670903       0.00233031      -0.00207367      -0.00163332
Ti       0.03231892       7.18989629       9.70540838       0.00301275      -0.00358140       0.00127240
Ti       2.24206924       3.80861321      10.46788469      -0.00080139      -0.00613561      -0.00142913
Ti       0.11686892       2.15263119      10.90181218      -0.00030286      -0.00128080      -0.00141984
Ti       2.31398223       6.59998084      11.17605210      -0.00206125      -0.00032612       0.00106385
Ti       4.15208384       4.79545775      11.85185181       0.00880869      -0.00486874       0.00596780
Ti       2.69000616       1.64096338      12.52705342       0.00008165      -0.00336192      -0.00054588
Ti       0.37203148       7.62546645      12.53004823       0.00041205      -0.00893144      -0.00250481
Ti       1.28566249       4.81538258      13.28400586      -0.00841998      -0.00543984      -0.00226514
Ti       3.10749417       6.61471063      13.91429337       0.00336984      -0.00051363       0.00235990
Ti       0.59128166       2.14907413      14.08966399      -0.00461717       0.00170832      -0.00134680
Ti       3.19665510       3.79716526      14.67956486       0.00090223      -0.00812022       0.00778711
Ti       0.71843255       7.21131144      15.36735376      -0.00196932       0.00124882       0.00048675
Ti       3.05543367       1.12142833      15.56262140       0.00004469       0.00107657       0.00317622
Ti       0.78631830       4.39945356      16.23540155      -0.00410453      -0.00182126       0.00264705
Ti       3.04554585       6.07119585      16.62670246      -0.00284129      -0.00355344       0.00130287
Ti       0.73274027       1.74633677      17.11188388      -0.00240080       0.00731923      -0.00376555
V        3.06667920       3.31107175      17.55539426      -0.00301927       0.00087063      -0.00193052
Ti       0.73343563       6.70070318      18.13737955      -0.00231594       0.00814924      -0.00072653
Ti       3.07439063       0.61200642      18.44770423      -0.00208482       0.00889395      -0.00368488
Ti       0.73900759       3.87486961      19.05234451      -0.00103251       0.00205267      -0.00347606
Ti       3.05991997       5.55926324      19.38984081      -0.00178806       0.00279872      -0.00144611
Ti       0.74795432       1.13253248      20.04777486      -0.00082895       0.00438818       0.00028128
Ti       3.06498568       2.77820876      20.41605846      -0.00079209       0.00356695      -0.00124969
Ti       0.71740830       6.10317686      20.93667283      -0.00116681       0.00338358      -0.00303168
Ti       3.09630062       0.01328729      21.35736873      -0.00418841       0.00662205      -0.00038413
Ti       0.72453463       3.34751477      22.01712520      -0.00189559       0.00237183       0.00098708
Ti       3.04867796       5.01469925      22.19350356      -0.00334889       0.00173922       0.00138539
Ti       0.83941440       0.62590915      22.94497959       0.00066624       0.00787110      -0.00439699
Ti       2.95319820       2.27518813      23.39828796      -0.00166974      -0.00064712      -0.00268944
Ti       0.77718858       5.60409625      23.66265754       0.00379154      -0.00205710      -0.00019307
Ti       3.59044822       7.39548890      24.31756895      -0.01056779       0.00514704       0.00676840
Ti       0.37543427       2.79777016      25.02853330      -0.00016917       0.00190993       0.00058265
Ti       2.70590512       4.56696012      25.02650620      -0.00044295       0.00787103      -0.00254165
