52
Lattice="5.088765 0.0 0.0 0.0 5.495746 0.0 0.0 0.0 32.722931" Properties=species:S:1:pos:R:3:forces:R:3 job_name=Segregation-1sol-C1-V-V-33-d-5.07 top_level=Segregation-1sol solute=V energy=-402.87278499 stress_kbar_3x3="_JSON [[-39.51730772, -1.00745132, -2.32069021], [-1.00745131, -33.70365714, -2.3396193], [-2.32069024, -2.3396193, -22.18433601]]" pbc="T T T"
Ti       2.63721494       0.80452501      32.68526910      -0.00378300      -0.00517173      -0.00423864
Ti       0.05840626       1.61163910       1.36145009       0.00034762       0.00199610      -0.00161180
Ti       0.84061286       4.36346763       1.36388512      -0.00220253       0.00262914      -0.00288282
Ti       2.58532342       2.37223239       2.58234937      -0.00065500       0.00046792       0.00978010
Ti       3.37721328       5.12254853       2.57340618       0.00182248      -0.00058709       0.01299035
Ti       0.82983268       0.40520473       3.83260965       0.00251998      -0.00433528       0.01188606
Ti       0.05587167       3.15413285       3.81516741       0.00007435      -0.00278488       0.01367133
Ti       3.40077784       1.20173275       5.06863278       0.00051305       0.00036692       0.00440331
Ti       2.59325873       3.94725909       5.07341542       0.00002242      -0.00104144       0.00532835
Ti       0.03044246       4.71669149       6.32565528       0.00238146       0.00452094      -0.00832792
Ti       0.84995572       1.97514292       6.30748552       0.00237845       0.00619857      -0.00714924
Ti       3.38996737       2.75775765       7.58377358      -0.00122506       0.00328702      -0.00895144
Ti       2.58978429       0.01337196       7.54965336      -0.00152608       0.00103462      -0.00603587
Ti       0.87745347       3.56852367       8.81869877       0.00062176       0.00157805      -0.00301595
Ti       0.06050153       0.81651445       8.81414523       0.00283927       0.00186645      -0.00827607
Ti       2.57411289       1.57942441      10.08286502       0.00811362       0.00817629       0.00111750
Ti       3.40580847       4.34865025      10.04012874       0.00379665       0.00192452      -0.00087501
Ti       0.82456662       5.11496063      11.34147687       0.00724178       0.00633729       0.00009531
Ti       0.04395499       2.37544464      11.26918437       0.00441907       0.00540860       0.00312520
Ti       3.41951182       0.45049890      12.58874770      -0.00528710       0.00466885       0.00702931
Ti       2.64408125       3.19715775      12.53524793      -0.00091179      -0.00164290       0.00307948
Ti       0.04513870       3.94873544      13.84979118       0.01076240       0.00653587       0.00085601
Ti       0.87794171       1.21719195      13.74187574       0.00341208       0.00381257       0.00309372
Ti       2.54679074       4.72788959      14.96682458      -0.00215893       0.01079466      -0.00734755
Ti       3.25418185       1.98138033      15.06774307       0.00206361       0.00487589       0.00302212
Ti       0.74326719       2.84444845      16.59251008       0.00340735      -0.00171635      -0.00911320
Ti       0.13864815       0.11409509      16.21402251       0.00260841       0.00006862       0.00232677
Ti       3.36087848       1.82889420      17.81832671      -0.00390780       0.01137847       0.00334238
Ti       2.80523176       4.60863406      17.68244190      -0.00804226      -0.01014587       0.00936120
Ti       4.96065946       3.82828767      19.15348123       0.00848248       0.00186147       0.00498213
Ti       0.80941780       0.98628051      18.91538630       0.00133627       0.00620076       0.01396916
Ti       3.22656207       0.41774214      20.26338359       0.00580994      -0.00473927       0.00797221
Ti       2.40671425       3.18057986      20.09135160      -0.00291651       0.00603151       0.00706818
V        0.79176426       5.01497020      21.51935762      -0.01066995       0.00330504      -0.00323771
Ti       0.08399962       2.24341793      21.42223920       0.00354911       0.00692108      -0.00410527
Ti       2.42063384       1.46845432      22.74998423      -0.00620659      -0.01125870      -0.00153112
Ti       3.38613864       4.19117192      22.55856653      -0.00348411       0.00329288       0.00103467
Ti       4.98571097       0.78586007      23.83167063       0.00615841       0.00397364      -0.00632095
Ti       0.80327766       3.58938883      23.88427392       0.00592675      -0.00492155      -0.00983099
Ti       3.35381309       2.73101202      25.13406162      -0.00749306      -0.00384439      -0.00938009
Ti       2.59402660       5.45231127      25.13130381      -0.00402202       0.00390023      -0.00707107
Ti       0.82346605       1.91772572      26.33363171       0.00057164      -0.00000245       0.00121710
Ti       5.07770396       4.66760272      26.42282381      -0.00015008      -0.01019629      -0.00177537
Ti       2.52712742       3.91876741      27.60792046      -0.00380492      -0.00267203       0.00140736
Ti       3.36104066       1.18858862      27.63009161      -0.00208425      -0.00745842       0.00050485
Ti       0.82563741       0.39386106      28.86946440      -0.00617871      -0.00663645      -0.00174407
Ti       0.05172160       3.12931842      28.85348076      -0.00432171      -0.00582701       0.00154257
Ti       2.58299227       2.36001081      30.13251475      -0.00312220      -0.01056748      -0.00104773
Ti       3.37686760       5.10493202      30.09123638      -0.00217229      -0.00499430       0.00253661
Ti       0.81201141       4.35551086      31.32792728      -0.00404354      -0.00853496      -0.00817030
Ti       0.01996853       1.60417610      31.32408279      -0.00273605      -0.01149311      -0.00502520
Ti       3.33248287       3.55078444       0.00118847       0.00192513      -0.00284200      -0.00967801
