52
Lattice="4.6568 0.0 0.0 0.0 7.770572 0.0 0.0 0.0 25.044546" Properties=species:S:1:pos:R:3:forces:R:3 job_name=Segregation-1sol-CSL7-V-V-27-d-1.36 top_level=Segregation-1sol solute=V energy=-401.75138482 stress_kbar_3x3="_JSON [[-18.3880397, -1.85758257, -0.015049], [-1.85758255, -23.81243227, 0.05881998], [-0.01504899, 0.05882, -24.72974572]]" pbc="T T T"
Ti       1.81775364       7.39392174       0.70463577      -0.00581662       0.00171679      -0.00145814
Ti       4.62862011       5.59740640       1.36636104       0.01034953       0.00676728      -0.00500137
Ti       2.45851864       2.27496588       1.61584486      -0.00487927       0.00811299      -0.00244719
Ti       4.56632886       0.62234236       2.08105112       0.00796222      -0.01220235      -0.00109057
Ti       2.35560506       5.00898231       2.82952667       0.00020883      -0.00314821       0.00398856
Ti       0.02299349       3.33395171       3.01770277      -0.00001831       0.00194724       0.01011528
Ti       2.31003477       0.01162584       3.65375753      -0.00197459       0.00042044       0.00445589
Ti       0.02930722       6.10198330       4.09668923       0.00374466      -0.00079087      -0.00028644
Ti       2.33832308       2.76304935       4.61293065       0.00169415       0.00047254      -0.00263332
Ti       0.00336184       1.11289136       5.00415039       0.00183120       0.00078203       0.00533821
Ti       2.34587609       5.56746849       5.62939417       0.00222290       0.00098484       0.00291624
Ti       0.01048161       3.87066086       5.96224738       0.00111138      -0.00110881       0.00563129
Ti       2.33495295       0.56373172       6.59287389       0.00259921      -0.00007999       0.00163599
Ti       0.01898502       6.63810810       6.92965810       0.00067710      -0.00202590       0.01116623
Ti       2.33431311       3.31927967       7.55745520       0.00162902       0.00010770       0.00935053
Ti       0.01535112       1.66744271       7.94044731       0.00255176      -0.00212862       0.00628504
Ti       2.35228303       6.09657975       8.46335030       0.00306271       0.00004104       0.01609637
Ti       4.62887798       4.41737830       8.90374422       0.00285433      -0.00108346       0.00913308
Ti       2.36046441       1.10651710       9.53137374       0.00144072      -0.00476714       0.00555847
Ti       0.03566221       7.19239825       9.72314970      -0.00305263      -0.00295713       0.00338243
Ti       2.22652872       3.82993381      10.49010604       0.00411508      -0.00275684       0.00859856
Ti       0.08944678       2.16192598      10.91706509       0.00389971      -0.00299494       0.00391774
Ti       2.34206795       6.63858024      11.22971644       0.00733508       0.00347231      -0.01250991
Ti       4.16619222       4.83474226      11.85421891      -0.00369575      -0.00445793      -0.01412022
Ti       2.66481432       1.64215887      12.55619090      -0.00428418       0.01375043      -0.00225829
Ti       0.28650524       7.65354451      12.58266553       0.00959340       0.01168312      -0.00705049
Ti       1.31362680       4.91833362      13.25773807      -0.00098427      -0.00755606       0.00601890
V        3.19695377       6.48873026      13.92668520      -0.00478858       0.00139038       0.00334648
Ti       0.62257661       2.25902049      14.11845638       0.00215458      -0.00127552      -0.00333167
Ti       3.20928496       3.84430545      14.59934931       0.00265885      -0.01322824       0.00391032
Ti       0.71530774       7.19637768      15.28312453      -0.00060489       0.00787332       0.01415514
Ti       3.01320963       1.06566678      15.42078491      -0.00323817       0.00532255      -0.00229379
Ti       0.77380957       4.44000946      16.17303554      -0.00143969       0.00385099      -0.00086725
Ti       3.04920680       6.11143990      16.56397044      -0.00449716      -0.00052261       0.00406525
Ti       0.71921004       1.66268704      17.07811534      -0.00468054      -0.00280446      -0.00946892
Ti       3.08163610       3.30713831      17.47757978      -0.00251337       0.00312837      -0.00560556
Ti       0.73563525       6.65513629      18.11647097      -0.00270004       0.00014245      -0.00359348
Ti       3.07410016       0.55990713      18.42743485      -0.00377252      -0.00428605      -0.00588061
Ti       0.74914440       3.86648840      19.07537306      -0.00215326      -0.00134761      -0.01059297
Ti       3.06556622       5.55973434      19.39797230      -0.00278469       0.00363048      -0.00972901
Ti       0.74788984       1.11637376      20.02449215      -0.00106854       0.00064777      -0.00982970
Ti       3.06744074       2.76155289      20.42576050      -0.00220940      -0.00206243       0.00074761
Ti       0.72260768       6.09896028      20.93712802      -0.00304818       0.00193491       0.00001909
Ti       3.09735556       0.00477018      21.37045193      -0.00092624       0.00709735      -0.00622414
Ti       0.72645838       3.33411037      22.01996463      -0.00041092      -0.00155773      -0.00922503
Ti       3.04939087       5.00688656      22.20104131      -0.00047233      -0.00073486      -0.00225037
Ti       0.84416232       0.62197762      22.94685797      -0.00741148      -0.01061904      -0.00520926
Ti       2.95014416       2.27287492      23.41919984       0.00431608       0.00700246      -0.00005610
Ti       0.77854804       5.59721937      23.66742579      -0.00744033       0.00750310       0.00284612
Ti       3.59159482       7.39270477      24.32486916       0.00499256       0.00170503      -0.00443331
Ti       0.37697378       2.79748755      25.03918133      -0.00155758      -0.00482650      -0.00178525
Ti       2.70540720       4.56917835      25.03885209      -0.00058151      -0.01016461      -0.00344645
