64
Lattice="5.871999 0.0 0.0 0.0 6.890708 0.0 0.0 0.0 27.401158" Properties=species:S:1:pos:R:3:forces:R:3 job_name=Segregation-1sol-T1m-Al-Al-33-d-0.00 top_level=Segregation-1sol solute=Al energy=-492.05619035 stress_kbar_3x3="_JSON [[-9.20307895, 0.0004072, 0.00020404], [0.00040722, -11.33193597, 0.00207658], [0.00020402, 0.0020766, -19.72645435]]" pbc="T T T"
Ti       2.93604833       0.10447182      -0.00005117       0.00001230      -0.00347497       0.00009452
Ti       2.93599907       2.94565420      -0.00001358       0.00006156      -0.00326641       0.00008298
Ti       0.00004123       0.10483093      -0.00004583       0.00001987      -0.00481414       0.00009239
Ti       0.00000224       2.94400522      -0.00001047       0.00002428      -0.00543546       0.00010257
Ti       4.40440049       5.03302490       1.41351290      -0.00100663      -0.00323202      -0.00128199
Ti       1.46767479       5.03303220       1.41353735       0.00100750      -0.00323481      -0.00133055
Ti       4.40591176       1.32007315       2.02712478       0.00142912       0.00008391      -0.00009167
Ti       1.46616270       1.32007472       2.02713137      -0.00156182       0.00002371      -0.00020185
Ti       2.93604334       3.40985580       3.20147839      -0.00003996       0.00193462       0.00352349
Ti       0.00003541       3.41227231       3.20125432      -0.00008564       0.00021888       0.00528408
Ti       2.93603878       6.23243869       3.62065210       0.00001066      -0.00194668       0.00290943
Ti       0.00003548       6.23230962       3.62091966       0.00000299      -0.00201699      -0.00094793
Ti       1.46873935       1.49454724       4.84021183       0.00189208      -0.00191317       0.00645354
Ti       4.40332506       1.49454598       4.84020955      -0.00189018      -0.00189912       0.00642234
Ti       1.46787327       4.43756798       5.43786642       0.00143754       0.00239385       0.01010262
Ti       4.40417947       4.43755992       5.43788455      -0.00140863       0.00239761       0.01002045
Ti       2.93601447       6.58843266       6.59682004      -0.00001144       0.00412316       0.01631351
Ti       0.00000583       6.58980877       6.59454021       0.00003965       0.00792876       0.00918624
Ti       2.93602441       2.51983223       7.10766246      -0.00011739       0.00107983       0.01032242
Ti       0.00001920       2.52518030       7.10755013       0.00001782      -0.00078243       0.00769957
Ti       4.41212149       4.67949206       8.26655461       0.00149020       0.00450724       0.00505075
Ti       1.45988397       4.67949457       8.26653770      -0.00148553       0.00449982       0.00503309
Ti       4.40060660       0.73689532       8.87569622       0.00340582       0.00100890      -0.00082389
Ti       1.47139614       0.73689649       8.87568394      -0.00339361       0.00097829      -0.00083648
Ti      -0.00000909       2.90301438      10.05331993      -0.00001615       0.00425794       0.00112049
Ti       2.93597952       2.87122399      10.09441193       0.00002983      -0.00178222      -0.00168721
Ti      -0.00000967       5.74513596      10.53417724      -0.00000104      -0.00325177       0.00336900
Ti       2.93599158       5.69833899      10.49608225       0.00000679       0.00376750       0.00617324
Ti       1.46473765       0.90340535      11.70976437       0.00216613       0.01068843       0.01234889
Ti       4.40720478       0.90341878      11.70977504      -0.00210035       0.01059810       0.01237827
Ti       1.44613210       4.07259088      12.29270036       0.00601000      -0.00881679       0.00759334
Ti       4.42584056       4.07259309      12.29269861      -0.00602431      -0.00882577       0.00759339
Ti       2.93597438       2.05615216      13.70054452       0.00004107      -0.01408608      -0.00008127
Al       5.87197896       2.14921709      13.70039358       0.00000929      -0.01826550      -0.00012046
Ti       2.93597327       6.10634196      13.70059218       0.00000275       0.01058864      -0.00005346
Ti       5.87196469       6.22821709      13.70057934       0.00000179      -0.00732346      -0.00006485
Ti       4.42586640       4.07253240      15.10840748      -0.00598470      -0.00900506      -0.00777458
Ti       1.44609807       4.07253041      15.10840724       0.00611871      -0.00899495      -0.00775942
Ti       4.40726241       0.90347955      15.69132036      -0.00205747       0.01089866      -0.01246339
Ti       1.46469633       0.90349408      15.69131768       0.00203855       0.01086746      -0.01244229
Ti       2.93599808       5.69835020      16.90501773       0.00000733       0.00392862      -0.00602328
Ti       0.00000185       5.74514120      16.86690833       0.00000730      -0.00325688      -0.00328454
Ti       2.93598989       2.87122455      17.30672349       0.00001139      -0.00173736       0.00172032
Ti       0.00000135       2.90302348      17.34785918      -0.00000422       0.00428097      -0.00109115
Ti       4.40062543       0.73689188      18.52543127       0.00341800       0.00095359       0.00085753
Ti       1.47141397       0.73688261      18.52543496      -0.00339743       0.00097771       0.00082902
Ti       4.41212699       4.67951457      19.13463071       0.00152329       0.00462860      -0.00507131
Ti       1.45990066       4.67952972      19.13462366      -0.00147213       0.00456542      -0.00510921
Ti       0.00004154       2.52520457      20.29362619      -0.00001864      -0.00075959      -0.00769007
Ti       2.93603526       2.51985543      20.29351798      -0.00008998       0.00111656      -0.01041511
Ti       0.00003951       6.58985836      20.80666652      -0.00002775       0.00789177      -0.00920376
Ti       2.93603543       6.58847679      20.80438765       0.00001861       0.00411521      -0.01639521
Ti       1.46788823       4.43760849      21.96334938       0.00144037       0.00231830      -0.01010432
Ti       4.40420868       4.43761498      21.96336211      -0.00142604       0.00233178      -0.01014005
Ti       1.46874758       1.49459254      22.56100376       0.00190119      -0.00189288      -0.00640059
Ti       4.40332643       1.49458548      22.56100730      -0.00187318      -0.00190199      -0.00645334
Ti       2.93602932       6.23245949      23.78056177       0.00003917      -0.00177125      -0.00273298
Ti       0.00004069       6.23234323      23.78029578      -0.00000619      -0.00199393       0.00101531
Ti       2.93603917       3.40989541      24.19976612       0.00003239       0.00195860      -0.00354550
Ti       0.00005712       3.41230740      24.20000863      -0.00008282       0.00018794      -0.00535371
Ti       4.40591881       1.32012846      25.37400565       0.00151334      -0.00006938       0.00028663
Ti       1.46617089       1.32011835      25.37401201      -0.00157662      -0.00003156       0.00027952
Ti       4.40439297       5.03300222      25.98765974      -0.00105010      -0.00315099       0.00131492
Ti       1.46766584       5.03299995      25.98768049       0.00102124      -0.00316679       0.00140155
