64
Lattice="5.871999 0.0 0.0 0.0 6.890708 0.0 0.0 0.0 27.401158" Properties=species:S:1:pos:R:3:forces:R:3 job_name=Segregation-1sol-T1m-V-V-42-d-3.62 top_level=Segregation-1sol solute=V energy=-495.73693914 stress_kbar_3x3="_JSON [[-12.38416416, 0.00030452, 0.00029616], [0.00030448, -14.48663704, -0.74074865], [0.00029609, -0.74074863, -20.19190174]]" pbc="T T T"
Ti       2.93603716       0.09797246      27.39018661      -0.00006708      -0.00003423       0.00081498
Ti       2.93605883       2.93372231      27.39343935      -0.00006109      -0.00841248       0.00072311
Ti       0.00005729       0.09786041      27.39017255       0.00001811      -0.00109630       0.00170650
Ti       0.00005448       2.93320499      27.39187327       0.00003257      -0.00612204      -0.00073750
Ti       4.40255934       5.02679569       1.40442007      -0.00031142      -0.00745066       0.00423764
Ti       1.46952230       5.02678777       1.40440714       0.00013331      -0.00732434       0.00427755
Ti       4.40476136       1.31637859       2.02369439       0.00037882      -0.00124852       0.00246191
Ti       1.46732683       1.31644133       2.02372557      -0.00052389      -0.00160369       0.00217140
Ti       2.93603611       3.41112517       3.20722499       0.00003688      -0.00239610      -0.00022049
Ti       0.00002795       3.41170373       3.20833077      -0.00012181      -0.00235981       0.00094391
Ti       2.93601032       6.22645479       3.61696988       0.00002888      -0.00187317      -0.00073088
Ti      -0.00000294       6.22606956       3.61596001       0.00009217      -0.00072125       0.00100866
Ti       1.46826516       1.49200869       4.83816740      -0.00061876      -0.00284763      -0.00141045
Ti       4.40373675       1.49200860       4.83818217       0.00061775      -0.00282087      -0.00161676
Ti       1.46947583       4.44140924       5.44572034      -0.00146551      -0.00291134      -0.00250814
Ti       4.40255231       4.44137328       5.44572325       0.00142870      -0.00280508      -0.00268214
Ti       2.93601000       6.59861143       6.60773530       0.00000630      -0.00146698      -0.00244017
Ti      -0.00000363       6.59738506       6.60784002       0.00007926      -0.00036419       0.00090175
Ti       2.93600659       2.52006899       7.11220893      -0.00004407      -0.00243422      -0.00219432
Ti      -0.00002434       2.51958886       7.10689725       0.00025554      -0.00145566       0.00238268
Ti       4.40518841       4.67762338       8.27374346      -0.00273678      -0.00114790      -0.00007624
Ti       1.46683819       4.67761505       8.27378093       0.00266232      -0.00117314      -0.00035981
Ti       4.40139369       0.73323886       8.88033080       0.00374320       0.00532094      -0.00131408
Ti       1.47063883       0.73325284       8.88036030      -0.00384789       0.00534449      -0.00149949
Ti       5.87198468       2.88610643      10.09389785       0.00004208       0.00941235       0.00336226
Ti       2.93599361       2.88873357      10.10458537       0.00005865       0.00705066       0.00147120
Ti       0.00001971       5.70316752      10.50718989      -0.00006285       0.00014675       0.00840417
Ti       2.93603304       5.70533840      10.51136911       0.00000418       0.00155003       0.00895358
Ti       1.47316555       0.91092117      11.69591595      -0.00745437      -0.00048358       0.00250080
Ti       4.39884333       0.91097173      11.69591758       0.00740212      -0.00068500       0.00242794
Ti       1.45489024       4.08581391      12.30888100      -0.00210485       0.00610163      -0.00708943
Ti       4.41711189       4.08578292      12.30885647       0.00209105       0.00626201      -0.00676317
Ti       2.93597380       2.13212557      13.70712145       0.00012084      -0.01049579       0.00229361
Ti      -0.00001041       2.11706174      13.74609416       0.00009557       0.00144149      -0.00965864
Ti       2.93598173       6.17635602      13.74082301       0.00004191       0.00776871      -0.00412867
Ti      -0.00001149       6.17179778      13.71904271      -0.00002069      -0.00081907       0.00471907
Ti       4.39431365       4.07164769      15.16025518       0.00234410       0.00907387       0.00458381
Ti       1.47768140       4.07163337      15.16022557      -0.00242184       0.00910179       0.00474295
Ti       4.34344976       0.95700542      15.76307476       0.00790030       0.00836978      -0.00814770
Ti       1.52855699       0.95697558      15.76306619      -0.00803216       0.00847684      -0.00804229
Ti       2.93601265       5.67310945      16.89099041       0.00006109       0.00278018       0.00610774
Ti       0.00002650       5.76990664      16.91155005       0.00000847       0.00142768       0.00078280
V        2.93592336       2.89112177      17.30813385       0.00001215       0.00321676       0.00188442
Ti       5.87197217       2.91851294      17.30684158       0.00009008      -0.01350578      -0.00896508
Ti       4.36376601       0.77814778      18.53044399       0.01237465       0.00037604       0.00064854
Ti       1.50825775       0.77813964      18.53044503      -0.01240212       0.00039776       0.00057079
Ti       4.40646007       4.64061751      19.09188846       0.00130392       0.00601700       0.00733570
Ti       1.46558573       4.64062707      19.09193310      -0.00132643       0.00592687       0.00722222
Ti       0.00003472       2.51921785      20.30701705       0.00008091       0.00932219       0.00697672
Ti       2.93604040       2.51388921      20.26951641      -0.00013218       0.00693468       0.00703638
Ti       0.00004519       6.57870687      20.75426586      -0.00012517      -0.00486547      -0.00472045
Ti       2.93601239       6.57845174      20.77175973       0.00005025      -0.00300223      -0.00193953
Ti       1.46880814       4.43976145      21.93639161       0.00089291      -0.00512626      -0.00285684
Ti       4.40321639       4.43975239      21.93637384      -0.00079590      -0.00509836      -0.00287884
Ti       1.47111217       1.47642825      22.54504808       0.00565561      -0.00192650      -0.00243432
Ti       4.40095269       1.47642089      22.54500201      -0.00564928      -0.00184387      -0.00218154
Ti       2.93604753       6.21890764      23.76965392      -0.00012432      -0.00006510      -0.00225387
Ti       0.00000791       6.21746348      23.76730761       0.00015956      -0.00146525      -0.00765507
Ti       2.93600232       3.40196179      24.17313848       0.00015212      -0.00377793      -0.00017830
Ti       0.00003468       3.40373148      24.16613515      -0.00008714       0.00056412      -0.00014172
Ti       4.40701161       1.31395374      25.35868504      -0.00145347      -0.00018406      -0.00235419
Ti       1.46506966       1.31397015      25.35867098       0.00146596      -0.00028903      -0.00213238
Ti       4.40348763       5.02133095      25.97538036       0.00144047      -0.00437477      -0.00065552
Ti       1.46856852       5.02132210      25.97538838      -0.00137171      -0.00430700      -0.00068677
