64
Lattice="5.871999 0.0 0.0 0.0 6.890708 0.0 0.0 0.0 27.401158" Properties=species:S:1:pos:R:3:forces:R:3 job_name=Segregation-1sol-T1m-V-V-46-d-5.43 top_level=Segregation-1sol solute=V energy=-495.92775658 stress_kbar_3x3="_JSON [[-12.20779627, 0.00195538, -0.00104347], [0.00195539, -12.15528939, -2.83117385], [-0.00104347, -2.83117387, -22.57434887]]" pbc="T T T"
Ti       2.93606036       6.86365176       0.19572156       0.00220800      -0.00528104      -0.00166062
Ti       2.93457483       2.78933990      27.18140627       0.00131841      -0.00646994       0.00140166
Ti       0.00004733       6.86365287       0.19566684      -0.00235416      -0.00550524      -0.00131796
Ti       0.00162053       2.78932811      27.18133193      -0.00148520      -0.00643471       0.00148119
Ti       4.40403539       4.77021512       1.38477701       0.00010637      -0.00099989      -0.00823385
Ti       1.46807141       4.77198107       1.36682532       0.00001628      -0.00554096       0.00785818
Ti       4.40407941       1.59762768       1.99746258      -0.00016761      -0.00808992      -0.00409134
Ti       1.46800812       1.59871235       1.99573983       0.00009313      -0.00633260      -0.00466779
Ti       2.92568338       3.56241828       3.41617464      -0.00002930      -0.00154459       0.00250976
Ti       0.01037461       3.56242914       3.41617718       0.00001059      -0.00156596       0.00247452
Ti       2.93465758       6.39592701       3.41501892      -0.00191373      -0.00855826       0.00105906
Ti       0.00145677       6.39593250       3.41499464       0.00186811      -0.00868936       0.00112682
Ti       1.46802176       1.59670981       4.83208608       0.00002533      -0.00441186       0.00548555
Ti       4.40401877       1.59829218       4.83162593       0.00002456      -0.00676603       0.00843973
Ti       1.46798727       4.77317434       5.45879939       0.00008295      -0.00065547      -0.00312463
Ti       4.40404934       4.77015092       5.45172182      -0.00009770       0.00073685      -0.00457156
Ti       2.93873727       6.86573028       6.63642579      -0.00192523       0.00138369      -0.00387341
Ti       5.86929921       6.86575980       6.63644171       0.00190079       0.00123805      -0.00388326
Ti       2.93623737       2.78612249       7.04988950      -0.00039469       0.00192353      -0.00254443
Ti       5.87178273       2.78612712       7.04989387       0.00041649       0.00198835      -0.00257404
Ti       4.40400231       4.94503893       8.27158400       0.00002996       0.00338673      -0.00227883
Ti       1.46800844       4.94472019       8.27384204      -0.00002221       0.00569773      -0.00317765
Ti       4.40401612       0.99451379       8.88162083      -0.00011525       0.00574430      -0.00664086
Ti       1.46801732       0.99396218       8.88028460       0.00001493       0.00887461      -0.00315219
Ti       0.00216806       3.15640164      10.03651278       0.00027625       0.00506379       0.00140074
Ti       2.93381338       3.15640238      10.03652205      -0.00021709       0.00493193       0.00136703
Ti       0.00213614       5.96873961      10.55299488      -0.00023619       0.00959316      -0.00636079
Ti       2.93389265       5.96873859      10.55298118       0.00021685       0.00976073      -0.00642354
Ti       1.46798481       1.25260403      11.71009205       0.00012052       0.00672817       0.00561067
Ti       4.40399799       1.24707151      11.71124348      -0.00017611       0.00598827       0.00715904
Ti       1.46799426       4.17187480      12.32976832      -0.00002633       0.01077682      -0.00413302
Ti       4.40401657       4.17482370      12.30909345       0.00002605       0.00775621      -0.00333066
Ti       2.92698456       2.27998255      13.97891216       0.00323325       0.00600565       0.00809017
Ti       0.00896144       2.27998182      13.97896495      -0.00313405       0.00605812       0.00797076
Ti       2.93315436       6.34294568      13.50829109       0.00252088       0.00782272       0.00638637
Ti       0.00284406       6.34291180      13.50835415      -0.00263192       0.00776257       0.00641272
Ti       4.40401043       4.40145762      15.13231299       0.00010072       0.00690069       0.00290116
Ti       1.46787139       4.41452988      15.16716492      -0.00002352       0.00908427       0.01129211
Ti       4.40384675       0.59778900      15.73534711      -0.00017866       0.00541285      -0.00836140
Ti       1.46818018       0.60776737      15.75423385       0.00004607      -0.00221129       0.00710328
Ti       2.98029276       5.55646933      17.28099301      -0.00519538      -0.00354769       0.00553821
Ti       5.82778156       5.55685778      17.28062617       0.00525010      -0.00337819       0.00524729
Ti       2.94981140       2.72864342      17.12243418      -0.00050502       0.00633266      -0.00436768
Ti       5.85810386       2.72866831      17.12228119       0.00060620       0.00623153      -0.00426432
Ti       4.40371989       0.68793386      18.52496489      -0.00001954       0.01217676       0.00438800
Ti       1.46823795       0.69918639      18.54977042       0.00010242      -0.00362144      -0.01229079
V        4.40526915       4.25338355      19.13503601       0.00042455      -0.00495894       0.00516972
Ti       1.46681687       4.28403025      19.17772581      -0.00038096       0.00225694      -0.01912863
Ti       5.83431108       2.26002832      20.31920294      -0.00612827      -0.00559696      -0.00247039
Ti       2.97360337       2.26060297      20.31913222       0.00623388      -0.00544095      -0.00249954
Ti       5.86178215       6.27779500      20.65907082      -0.00087643       0.00001190      -0.00676409
Ti       2.94615639       6.27757340      20.65897440       0.00095355      -0.00009760      -0.00654823
Ti       1.46790109       4.17670845      21.96006907      -0.00002976      -0.00033009       0.00910699
Ti       4.40412302       4.15227248      21.90117861      -0.00006999      -0.00636623      -0.00043307
Ti       1.46810676       1.18984602      22.50832942       0.00032845      -0.01179492       0.00675221
Ti       4.40384299       1.20381031      22.53157063      -0.00020786       0.00093363      -0.00646309
Ti       2.94178378       5.95776496      23.68181368      -0.00729659      -0.00541233       0.00137854
Ti       5.86629094       5.95784195      23.68187902       0.00728832      -0.00593152       0.00139251
Ti       2.94494259       3.13784894      24.19074717      -0.00512658      -0.00484844       0.00314393
Ti       5.86308855       3.13782526      24.19068421       0.00519991      -0.00446224       0.00324071
Ti       4.40404743       0.98688840      25.36469165      -0.00014473      -0.00937675       0.00340246
Ti       1.46805052       0.99113197      25.34602243       0.00016253      -0.00528066      -0.00685061
Ti       4.40407359       4.94025047      25.96581460       0.00004088      -0.00447833       0.01087244
Ti       1.46811214       4.93810705      25.94574175      -0.00013723      -0.00458282      -0.00068127
