52
Lattice="5.088765 0.0 0.0 0.0 5.495746 0.0 0.0 0.0 32.722931" Properties=species:S:1:pos:R:3:forces:R:3 job_name=Segregation-1sol-C1-Al-Al-31-d-3.83 top_level=Segregation-1sol solute=Al energy=-399.02814928 stress_kbar_3x3="_JSON [[-37.54469171, -0.25617029, 0.27725918], [-0.25617034, -29.05322844, 0.17946559], [0.27725924, 0.17946557, -18.20206756]]" pbc="T T T"
Ti       2.62727162       0.79293383      32.72203194       0.00816708       0.00471188       0.00010770
Ti       0.03070371       1.59793381       1.37459263       0.00141026      -0.00111236       0.00163573
Ti       0.81790872       4.34680554       1.37197542       0.00380173      -0.00081770       0.00084280
Ti       2.57214446       2.35799068       2.58427123       0.00398162      -0.00091585      -0.00247776
Ti       3.36818482       5.10635547       2.58605509       0.00148538      -0.00141808      -0.00186430
Ti       0.81558741       0.38757666       3.83185556       0.00365437       0.00074397      -0.00770069
Ti       0.03841526       3.13587914       3.83058359       0.00119458       0.00123172      -0.00834570
Ti       3.37500594       1.18226589       5.07249226       0.00448946       0.00237989      -0.00970502
Ti       2.56755973       3.92999267       5.07479546       0.00340425       0.00165749      -0.00809758
Ti       0.01457271       4.70231508       6.31602588       0.00329929      -0.00214990       0.00170358
Ti       0.83719980       1.95515761       6.31287598       0.00130227      -0.00139308       0.00132202
Ti       3.37662195       2.73773863       7.56256329       0.00202483      -0.00315927       0.00667111
Ti       2.56671665       5.48615395       7.55667219       0.00215272      -0.00245649       0.00462827
Ti       0.83799468       3.53928440       8.81039781       0.00633851      -0.00073844      -0.00393600
Ti       0.02564867       0.78927367       8.80787104       0.00224052       0.00108109      -0.00550646
Ti       2.56083432       1.56684126      10.05738574       0.00115209      -0.00116165      -0.00279329
Ti       3.38516198       4.32080890      10.05104976       0.00086548      -0.00339438      -0.00460549
Ti       0.82425084       5.09132412      11.30404951       0.00097348      -0.00384018       0.00546748
Ti       0.02353343       2.34341006      11.28815818       0.00163265      -0.00371964       0.00055714
Ti       3.36833585       0.39225150      12.55184130       0.00351072      -0.00043994       0.00594625
Ti       2.59083631       3.14007742      12.53190777      -0.00071426      -0.00460150       0.00108893
Ti       0.03495656       3.91050210      13.78887817      -0.00344902      -0.00803044       0.00455991
Ti       0.83089496       1.16750187      13.77354640       0.00257039      -0.00181839      -0.00217674
Ti       2.57185700       4.66539524      14.98127414      -0.00057562      -0.00674416      -0.00072481
Ti       3.33265015       1.92101452      15.00737900      -0.00834148      -0.00531071       0.00401936
Ti       0.76796236       2.75248284      16.42039644      -0.00338323      -0.00499673       0.00398408
Ti       0.09115405       0.00014744      16.33708735      -0.00681107       0.00394752       0.00633266
Ti       3.37434690       1.92994161      17.77928655      -0.01234769       0.00210475      -0.00363118
Ti       2.55747716       4.67875441      17.75281833      -0.00582740       0.00337183       0.01206429
Ti       5.05068663       3.96083504      18.93095272      -0.00495221       0.00797777      -0.00534495
Ti       0.78555302       1.19289795      18.99118836       0.00328163       0.01204428       0.00665490
Al       3.33350856       0.38611105      20.19550850      -0.01671883       0.00659841       0.00195393
Ti       2.58297205       3.14024424      20.19547274      -0.00056347      -0.00410368      -0.00792496
Ti       0.80333387       5.08009821      21.41018501      -0.00260490      -0.00967255      -0.01585372
Ti       5.01957732       2.31120625      21.47108723      -0.00793922      -0.00789564       0.00670908
Ti       2.51226318       1.58997078      22.63795445      -0.00925217       0.00531890      -0.00103338
Ti       3.39341934       4.33342097      22.63869206      -0.00712979       0.00941877       0.01311604
Ti       0.05589447       0.78761330      23.92984403      -0.00506807       0.00488893       0.00571130
Ti       0.84744726       3.54808763      23.90474105      -0.00039982       0.00364050       0.01080190
Ti       3.38274523       2.73383183      25.12588789       0.00388561      -0.00608977      -0.00935987
Ti       2.57821270       5.48146025      25.17070683       0.00451524      -0.00155575      -0.00406928
Ti       0.84914389       1.96525272      26.39710125      -0.00224016       0.01002654      -0.00168466
Ti       0.01623493       4.70409154      26.40207311      -0.00266947      -0.00663018      -0.00096958
Ti       2.58501311       3.93211614      27.62888583       0.00180468      -0.00095645       0.00420179
Ti       3.38456014       1.18983538      27.63536283       0.00533686       0.00770899       0.00734331
Ti       0.82482959       0.38570146      28.88063366       0.00356502      -0.00010588       0.00154145
Ti       0.05039696       3.13017135      28.89006950       0.00407297       0.00213587       0.00454630
Ti       2.57463819       2.35588222      30.12248348       0.00301992       0.00058389      -0.00231127
Ti       3.37764315       5.10866092      30.12587971       0.00316364       0.00031354      -0.00282098
Ti       0.82619331       4.35325319      31.33992626       0.00379794      -0.00222504      -0.00392926
Ti       0.04412693       1.60240480      31.33935963       0.00391673       0.00107666      -0.00517447
Ti       3.32152231       3.54339332      32.71502289       0.00097596       0.00449060      -0.00146989
