64
Lattice="5.872 0.0 0.0 0.0 6.890708 0.0 0.0 0.0 27.394398" Properties=species:S:1:pos:R:3:forces:R:3 job_name=Segregation-1sol-T1g-V-V-42-d-4.72 top_level=Segregation-1sol solute=V energy=-495.94501581 stress_kbar_3x3="_JSON [[-12.18367642, -0.00161009, -0.00214939], [-0.00161007, -11.95281593, -3.34239147], [-0.00214939, -3.3423915, -22.36805687]]" pbc="T T T"
Ti       4.40137063       5.09831306       0.09091011       0.00205734      -0.00277788       0.00013638
Ti       1.47064860       5.09831688       0.09093168      -0.00202442      -0.00282681       0.00010947
Ti       0.00001978       3.00070837       1.26331347       0.00003001      -0.00879564       0.00377331
Ti       2.93605367       3.00009400       1.26132651      -0.00006508      -0.00203072      -0.00036979
Ti       0.00005779       6.74600212       1.88052171      -0.00018513      -0.00023645       0.00097797
Ti       2.93601029       6.74740257       1.88370432       0.00009221       0.00094059       0.00452260
Ti       4.40021987       1.81930853       3.31740906       0.00227135      -0.00558051       0.00702804
Ti       1.47183869       1.81930614       3.31740326      -0.00230695      -0.00554394       0.00714716
Ti       1.46897551       4.65303846       3.28497967      -0.00102682      -0.00355682      -0.00336807
Ti       4.40313287       4.65305381       3.28498853       0.00095636      -0.00356095      -0.00334696
Ti      -0.00000220       6.74342751       4.71386346       0.00010304      -0.00565872      -0.00057921
Ti       2.93604641       6.74403939       4.71624530      -0.00016261      -0.00794265      -0.00125687
Ti       2.93601365       3.07107782       5.33772208       0.00004146       0.00345188      -0.00487102
Ti       0.00001495       3.06787168       5.33397247       0.00000725       0.00851502      -0.00400796
Ti       4.40472562       5.15713211       6.52948592      -0.00089427       0.00124741       0.00408067
Ti       1.46727239       5.15712925       6.52949101       0.00092213       0.00125983       0.00414030
Ti       4.40354838       1.08716734       6.91888803       0.00049379      -0.00068901      -0.00838903
Ti       1.46846295       1.08716513       6.91890811      -0.00051251      -0.00068099      -0.00842331
Ti       2.93597981       3.24668101       8.15595902       0.00004044       0.00726921      -0.00324483
Ti       5.87196556       3.24306472       8.15352771       0.00008813       0.00738755      -0.00004686
Ti       2.93600611       6.20526473       8.76098921      -0.00000318       0.00661139       0.00634197
Ti       0.00000878       6.20478232       8.75311106      -0.00002695       0.00681266       0.00922530
Ti       4.40134340       1.47287292       9.91728543       0.00015450       0.00637577       0.00582689
Ti       1.47067013       1.47289408       9.91731335      -0.00010301       0.00623642       0.00577437
Ti       4.40244803       4.29767248      10.42507665      -0.00246460       0.00463556       0.00113423
Ti       1.46952138       4.29769937      10.42504881       0.00259074       0.00462674       0.00116331
Ti       2.93603077       6.46856626      11.60217690      -0.00014593       0.00506852       0.00752704
Ti       0.00000950       6.46761086      11.58995433      -0.00005804       0.00056266       0.00988215
Ti       2.93604376       2.50187572      12.20600679      -0.00011454       0.00563503       0.00441951
Ti       0.00001996       2.49977850      12.18185533      -0.00001525       0.00307130       0.00906020
Ti       1.46044252       4.67122463      13.38392552       0.00164639      -0.00160561      -0.00676730
Ti       4.41162996       4.67120115      13.38394061      -0.00148394      -0.00156731      -0.00671869
Ti       4.40528479       0.61641003      13.86519644       0.00132205       0.00410647       0.00214011
Ti       1.46680012       0.61637905      13.86522167      -0.00126669       0.00392335       0.00206003
Ti       0.00023725       2.74485089      15.01785859      -0.00008505       0.00237956       0.00466259
Ti       2.93586989       2.73218145      15.05253425      -0.00002960      -0.00786201      -0.00059205
Ti       5.87193472       5.79004716      15.64423004      -0.00010156       0.00019767      -0.00767507
Ti       2.93617870       5.80793587      15.58994739      -0.00014564      -0.00756071      -0.00017367
Ti       4.46263042       3.90876633      17.15418941      -0.00499866      -0.00288767       0.00707543
Ti       1.40949891       3.90932543      17.15431641       0.00498613      -0.00297828       0.00714077
Ti       4.41739334       1.01356047      16.97957905      -0.00004263       0.00170983      -0.00008036
Ti       1.45467605       1.01334061      16.97953796      -0.00002534       0.00198112       0.00004522
V        5.87083051       5.89747958      18.43527984      -0.00039145       0.00060616      -0.00177216
Ti       2.93710537       5.87976787      18.38542106       0.00029487       0.00263048       0.00196337
Ti       2.93560306       2.52411288      19.01014675      -0.00019408       0.00076872       0.00315364
Ti       0.00045494       2.51762133      19.05005018       0.00007751      -0.00624330       0.00626370
Ti       4.42491050       0.46110586      20.18893202      -0.00393900      -0.00022997      -0.00436453
Ti       1.44688063       0.46069704      20.18879208       0.00428827      -0.00009164      -0.00467307
Ti       1.45252053       4.54245643      20.51107961      -0.00355807      -0.00047247      -0.00577433
Ti       4.41953593       4.54248830      20.51132438       0.00359742      -0.00039869      -0.00547630
Ti       2.93584697       2.41423268      21.79683025       0.00007066       0.00184224      -0.00832378
Ti       0.00012788       2.40163599      21.81969702       0.00004638       0.00542007       0.00202386
Ti       2.93600425       6.32130426      22.39332340       0.00012227      -0.00413826      -0.00224807
Ti       5.87181157       6.31663513      22.41863480       0.00025102      -0.00128606      -0.00920274
Ti       4.40034888       4.18234628      23.56239830      -0.00320337      -0.00127757      -0.00128793
Ti       1.47160077       4.18235542      23.56236464       0.00304674      -0.00118446      -0.00136875
Ti       4.40076078       1.36684659      24.07172309      -0.00112786      -0.00197877      -0.00562304
Ti       1.47116841       1.36685474      24.07174042       0.00129883      -0.00207738      -0.00556571
Ti       2.93600089       6.10648018      25.22600659      -0.00004680       0.00016097      -0.00226223
Ti      -0.00000449       6.10732067      25.24254825       0.00004573      -0.00371097      -0.00665995
Ti       0.00003075       3.16826197      25.84116608      -0.00012171       0.00013666      -0.00130525
Ti       2.93599476       3.17256869      25.84135140      -0.00000049      -0.00166805      -0.00290642
Ti       1.46954435       1.01937429      27.05131806       0.00271966      -0.00325334      -0.00010344
Ti       4.40253498       1.01936296      27.05129042      -0.00279147      -0.00321724       0.00002913
