64
Lattice="5.088765 0.0 0.0 0.0 9.739025 0.0 0.0 0.0 22.303587" Properties=species:S:1:pos:R:3:forces:R:3 job_name=Segregation-1sol-T2-V-V-44-d-4.19 top_level=Segregation-1sol solute=V energy=-496.07579511 stress_kbar_3x3="_JSON [[1.23979082, -10.20252612, -0.43902378], [-10.20252613, -18.92300556, 1.43003546], [-0.4390238, 1.43003546, -18.46695303]]" pbc="T T T"
Ti       2.56620942       9.33486582       0.08151002      -0.00210596      -0.00146146      -0.00161556
Ti       0.01370811       4.46589583       0.09018625      -0.00529899       0.00120415       0.00301973
Ti       1.28616861       2.02029825       0.56440514       0.00038852      -0.00012295       0.00061460
Ti       3.83368845       6.89228892       0.56016851      -0.00104161       0.00158138      -0.00611591
Ti       2.60560704       4.27782522       1.31377038       0.00328211       0.00452116      -0.00576169
Ti       0.06418711       9.14435499       1.30205877       0.00260858       0.00564010      -0.00828834
Ti       0.98050048       6.36924000       2.12758014       0.00083489       0.00381304      -0.00327734
Ti       3.52975579       1.50193666       2.12872795      -0.00253813       0.00385358      -0.00206308
Ti       0.25791086       3.58180752       2.77438345       0.00121297       0.00301958      -0.00080995
Ti       2.80519262       8.45290774       2.76747257      -0.00147288       0.00070493      -0.00239931
Ti       1.09827786       0.90902813       3.47864101      -0.00081126       0.00183686      -0.00080583
Ti       3.64384801       5.77793244       3.48164559      -0.00202405       0.00055242       0.00208221
Ti       2.71573198       3.18631347       4.22558186       0.00245866       0.00261547       0.00156473
Ti       0.17066426       8.05809261       4.21717796       0.00485303      -0.00069119       0.00180584
Ti       3.59014720       0.53422518       4.84656015      -0.00252202       0.00030037       0.00422891
Ti       1.04685405       5.40040313       4.84370153      -0.00203475      -0.00272209      -0.00087478
Ti       2.75464830       7.59312858       5.54480197       0.00186777       0.00049636       0.00254701
Ti       0.21071755       2.72118430       5.55088727       0.00107098      -0.00350867       0.00188400
Ti       3.61218000       4.93507574       6.31258366      -0.00146316       0.00227107       0.00170863
Ti       1.06838678       0.06380815       6.31144725       0.00062257       0.00220843       0.00163357
Ti       0.22299521       7.13323245       7.00710880      -0.00426457       0.00061517       0.00282130
Ti       2.76246795       2.26052312       7.02363940      -0.00210355      -0.00271496      -0.00065338
Ti       1.11978840       4.48844805       7.60683502       0.00283435       0.00119551      -0.00025765
Ti       3.66458431       9.35621530       7.60536769       0.00230404      -0.00165260       0.00004669
Ti       0.16778808       1.90184556       8.37679685      -0.00079193       0.00345548      -0.00018910
Ti       2.70546179       6.78869387       8.37815727      -0.00171509       0.00170110      -0.00083389
Ti       0.98009039       8.98604199       9.06326452      -0.00182283       0.00089207      -0.00089448
Ti       3.53593735       4.10573257       9.05822073       0.00054599      -0.00026848       0.00237121
Ti       2.89696887       1.23259748       9.73541571      -0.00379303      -0.00155480      -0.00479362
Ti       0.32164040       6.13217090       9.69857124       0.00176768      -0.00346265      -0.00139659
Ti       3.80503490       8.24893248      10.59863513      -0.00450512      -0.00287677      -0.00196229
Ti       1.26125725       3.36474184      10.56056449      -0.00359463       0.00078705      -0.00119920
Ti       0.04928847       0.76182774      11.40308257      -0.00098585      -0.00203923      -0.00048963
Ti       2.56319257       5.62597353      11.35199666       0.00038462      -0.00244984       0.00223572
Ti       3.81241427       3.17108459      11.66892355      -0.00242100       0.00294760       0.00544408
Ti       1.26726687       8.04585159      11.66095185       0.00067035       0.00017874       0.00073637
Ti       2.60573980       0.83989294      12.49889237       0.00081757       0.00247991       0.00173588
Ti       0.00892631       5.73228896      12.43201993      -0.00285845      -0.00072251      -0.00135034
Ti       1.68863966       3.64156366      13.26299402       0.00189984       0.00193394       0.00448318
Ti       4.25227212       8.39616685      13.34855968      -0.00027341      -0.00304012      -0.00111039
Ti       4.72546584       1.88424519      13.99081978      -0.00197686       0.00200223       0.00297355
Ti       2.07433003       6.72313248      13.97977213       0.00394464       0.00091919      -0.00009106
Ti       1.32659776       9.37662504      14.69883170      -0.00022309      -0.00108458      -0.00020177
Ti       3.91676977       4.63384132      14.68942892      -0.00062020      -0.00063391      -0.00420892
V        5.02156191       7.10655842      15.55216726      -0.00206880      -0.00132664      -0.00366749
Ti       2.42303734       2.21854056      15.45281862      -0.00154752      -0.00132832      -0.00496905
Ti       1.37715102       4.79049543      15.88690077       0.00008649      -0.00019948      -0.00336624
Ti       3.91669311       9.66789557      15.89936144       0.00410672       0.00463944       0.00145011
Ti       2.40964137       7.40464289      16.63894445      -0.00057892      -0.00189372      -0.00379332
Ti       4.90341720       2.58217291      16.66731032       0.00019201      -0.00153355      -0.00543885
Ti       4.04755910       5.23277552      17.42390911      -0.00016768      -0.00094586       0.00085855
Ti       1.48393980       0.34651155      17.43641678       0.00204382      -0.00177665       0.00088578
Ti       4.83097816       7.97973934      18.09692685       0.00424124       0.00067971       0.00128389
Ti       2.26442993       3.10424635      18.13213239       0.00312210      -0.00159750      -0.00009834
Ti       1.40983432       5.76405377      18.76482427       0.00337538      -0.00265340       0.00363198
Ti       3.94963386       0.88823641      18.76949247      -0.00273773      -0.00086152       0.00058807
Ti       2.36217872       8.32960289      19.52399279      -0.00139997       0.00042091       0.00531173
Ti       4.89901805       3.47220671      19.54072906      -0.00254140      -0.00011635       0.00354625
Ti       1.49234629       1.27093516      20.17548012       0.00297704      -0.00357445       0.00284523
Ti       4.04245538       6.14901067      20.16931659       0.00203944      -0.00304703       0.00256669
Ti       4.83524843       8.88778287      20.84105046       0.00073397      -0.00333630       0.00359065
Ti       2.28515168       4.02981669      20.85015320       0.00206504      -0.00285519      -0.00049099
Ti       3.83228314       1.89354630      21.68081565       0.00431986      -0.00184284       0.00042154
Ti       1.29094563       6.75960755      21.67917581       0.00063215       0.00042865       0.00255073
