64
Lattice="5.088765 0.0 0.0 0.0 9.739025 0.0 0.0 0.0 22.303587" Properties=species:S:1:pos:R:3:forces:R:3 job_name=Segregation-1sol-T2-V-V-39-d-2.12 top_level=Segregation-1sol solute=V energy=-496.05732971 stress_kbar_3x3="_JSON [[-3.69472226, -0.9311406, 0.52667017], [-0.93114058, -17.99408281, -4.04837203], [0.5266702, -4.04837204, -20.51747995]]" pbc="T T T"
Ti       2.54578120       9.27387579      22.28189025       0.00536929       0.00008309      -0.00282609
Ti       0.00325873       4.40573249      22.27817553      -0.00351482      -0.00009497       0.00347592
Ti       1.27041877       1.88540964       0.61147721       0.00188255      -0.00103540      -0.00255694
Ti       3.81375988       6.75758081       0.60193591       0.00052333       0.00187679       0.00194744
Ti       2.73582279       4.07166195       1.39095581       0.00138057       0.00172976      -0.00148619
Ti       0.18431520       8.94386031       1.39090204       0.00076661      -0.00013622      -0.00459234
Ti       1.03930540       6.22114884       2.11690072       0.00361020       0.00617148      -0.00080764
Ti       3.58555808       1.34640202       2.12726758       0.00362286       0.00563440      -0.00343087
Ti       0.22376933       3.50985388       2.75915431      -0.00061868       0.00721709      -0.00042176
Ti       2.76458305       8.38054294       2.76169387       0.00358315       0.00741548      -0.00251743
Ti       1.11022528       0.89044566       3.51254774       0.00140933       0.00544027      -0.00354720
Ti       3.65367214       5.76602774       3.50170705       0.00051239       0.00584610      -0.00178315
Ti       2.75489276       3.13857553       4.18117686       0.00180400       0.00398424       0.00349389
Ti       0.20505314       8.00827971       4.18561522       0.00361896       0.00583860       0.00008019
Ti       3.60792710       0.47145771       4.87723001      -0.00237644       0.00556274       0.00154949
Ti       1.06541584       5.34530760       4.85945183      -0.00197777       0.00348801       0.00566693
Ti       2.75708305       7.56652986       5.56873140      -0.00063041       0.00366564       0.00158117
Ti       0.22176266       2.69165499       5.56368964      -0.00226545       0.00428185       0.00272912
Ti       3.60348757       4.90833173       6.30567310       0.00262478       0.00232209       0.00408801
Ti       1.05664030       0.02477382       6.33175381       0.00320338       0.00389588       0.00095499
Ti       0.20281516       7.11956943       6.98340581       0.00107080      -0.00097582       0.00376496
Ti       2.75899074       2.24702933       6.97740311      -0.00100963       0.00328726      -0.00076106
Ti       1.09617856       4.47014909       7.65833284      -0.00363614       0.00343319       0.00034889
Ti       3.62972359       9.32827980       7.68907338      -0.00261365       0.00461649      -0.00201168
Ti       0.17940803       1.87110525       8.37444504      -0.00236020       0.00475309       0.00349452
Ti       2.70439161       6.75997005       8.38614249       0.00018531       0.00052234       0.00271008
Ti       0.98929057       8.92255361       9.12577575      -0.00094887      -0.00314300       0.00232969
Ti       3.56714944       4.07765211       9.06306267      -0.00392112      -0.00201662       0.00183071
Ti       2.78018897       1.34501373       9.71151911      -0.00219974      -0.00063517       0.00170986
Ti       0.19304410       6.22318358       9.72683248       0.00044974      -0.00761807       0.00170036
Ti       3.67790039       8.35248993      10.65849361      -0.00334199      -0.00439507       0.00046680
Ti       1.20307403       3.47065627      10.53143807       0.00028659      -0.00451170       0.00383547
Ti       5.06007416       0.88791301      11.24968831      -0.00552738      -0.00092796       0.00101652
Ti       2.47437633       5.77297207      11.23201787       0.00220859      -0.00300709       0.00174423
Ti       3.77140569       3.31537909      11.73978158      -0.00132152      -0.00455774      -0.00052465
Ti       1.11884734       8.19972480      11.86003637       0.00236846      -0.00016736       0.00025467
Ti       2.54216633       1.01187614      12.46759547      -0.00029937       0.00093194      -0.00314580
Ti       4.98215204       5.90832574      12.48631076      -0.00111892      -0.00611151       0.00452054
Ti       1.53743902       3.84114047      13.27856225       0.00430272      -0.00481221       0.00223012
V        4.01914639       8.75128356      13.35011571      -0.00654140      -0.00074319      -0.00216217
Ti       4.84598964       1.70015038      13.91830906      -0.00188336      -0.00149468      -0.00686220
Ti       2.35178166       6.61589367      13.89913283       0.00433214      -0.00822762       0.00190762
Ti       1.47189373       9.29865629      14.61263386      -0.00080998      -0.00141123      -0.00600081
Ti       4.00514310       4.39664795      14.64274889       0.00044145      -0.00518573       0.00299912
Ti       4.89901649       7.04434795      15.25867226      -0.00183333      -0.00253063       0.00198076
Ti       2.35966609       2.16407276      15.36054014      -0.00301170      -0.00007380      -0.00287593
Ti       1.48530494       4.84549953      15.98772236       0.00241478      -0.00553175       0.00540361
Ti       4.03575761       9.68909732      15.99081453       0.00110257      -0.00122505      -0.00457292
Ti       2.33960143       7.51198554      16.69040397       0.00153717      -0.00414400      -0.00112915
Ti       4.90722808       2.62632669      16.71460406       0.00017959      -0.00021852      -0.00022910
Ti       4.03465708       5.28802838      17.41914553      -0.00200463      -0.00450501      -0.00092913
Ti       1.48762723       0.41122354      17.43565177      -0.00286089      -0.00078887      -0.00452664
Ti       4.89390855       7.95551410      18.09067147       0.00220973      -0.00027563      -0.00661773
Ti       2.35033471       3.09538548      18.10153577      -0.00265634       0.00009663      -0.00280780
Ti       1.45702725       5.72559226      18.77628206       0.00239046      -0.00492246      -0.00497203
Ti       3.99590749       0.85237288      18.78189456       0.00057542      -0.00232162      -0.00328407
Ti       2.32438112       8.36203965      19.51891647       0.00107670      -0.00159370      -0.00029195
Ti       4.86820538       3.49406630      19.52854187      -0.00202237      -0.00417704      -0.00163344
Ti       1.53226569       1.36004602      20.16885911       0.00158867      -0.00099804       0.00033923
Ti       4.07818281       6.22870477      20.15988984      -0.00343251      -0.00065188       0.00400820
Ti       4.94056970       8.97822474      20.90906075      -0.00017284       0.00262139       0.00150441
Ti       2.40242910       4.11451377      20.91167364       0.00073763      -0.00184126       0.00159666
Ti       3.81559830       1.90881449      21.69218242      -0.00120968      -0.00177204      -0.00082923
Ti       1.27136537       6.77973517      21.68338406       0.00475123       0.00406381       0.00287288
