64
Lattice="5.872 0.0 0.0 0.0 6.890708 0.0 0.0 0.0 27.394398" Properties=species:S:1:pos:R:3:forces:R:3 job_name=Segregation-1sol-T1g-Al-Al-49-d-6.96 top_level=Segregation-1sol solute=Al energy=-491.97023328 stress_kbar_3x3="_JSON [[-10.61798054, 0.00018861, -0.0007022], [0.00018859, -9.69900217, 0.17126523], [-0.00070219, 0.17126523, -20.11066846]]" pbc="T T T"
Ti       4.40394969       5.20852012      27.37293766       0.00001221       0.00641462      -0.00380225
Ti       1.46802943       5.20482452      27.36322764      -0.00002853       0.00820065      -0.00876329
Ti       0.00452846       3.19033767       1.27444766      -0.00032045      -0.00065449      -0.00109067
Ti       2.93145695       3.19031035       1.27449059       0.00026083      -0.00061055      -0.00120656
Ti       5.87115288       6.62359307       1.89332912      -0.00046082      -0.00252422       0.00225054
Ti       2.93681268       6.62363391       1.89338022       0.00050857      -0.00266379       0.00209842
Ti       4.40402683       1.76311953       3.18047715       0.00000095      -0.01156719      -0.00170109
Ti       1.46793315       1.76223899       3.18191566       0.00002421      -0.01237219      -0.00165342
Ti       1.46796842       4.59139590       3.40446297       0.00001525       0.00310082       0.00116751
Ti       4.40399277       4.59164564       3.40215733       0.00000486       0.00406587       0.00113951
Ti       5.87022286       6.72292809       4.71306083       0.00073811       0.00090634      -0.01245535
Ti       2.93774390       6.72292315       4.71306688      -0.00077672       0.00091418      -0.01228746
Ti       2.93519529       2.87307609       5.32300791      -0.00011922      -0.01042831      -0.00117544
Ti       0.00077932       2.87307432       5.32307900       0.00005623      -0.01047796      -0.00140017
Ti       4.40398639       5.00434650       6.48367241      -0.00005691      -0.00579829       0.00652621
Ti       1.46797133       5.00420053       6.48443940       0.00011564      -0.00426931       0.00634144
Ti       4.40400760       0.93075133       6.96033149      -0.00007120       0.00118480       0.00537881
Ti       1.46799321       0.93204139       6.96017596       0.00001016      -0.00039216       0.00528291
Ti       2.93665212       3.09219275       8.14599342       0.00020461      -0.00286439      -0.00188533
Ti       5.87133956       3.09219391       8.14600178      -0.00019578      -0.00274220      -0.00162326
Ti       2.93670856       6.01954326       8.74716236      -0.00082595      -0.00394561       0.00295069
Ti       5.87129833       6.01954745       8.74716081       0.00082079      -0.00394915       0.00332104
Ti       4.40400728       1.29009091       9.92945672       0.00025620      -0.00583972       0.00325354
Ti       1.46803586       1.29069004       9.93016821      -0.00023510      -0.00755804       0.00412774
Ti       4.40399441       4.10619010      10.40903705       0.00040883      -0.00434578       0.00100982
Ti       1.46801800       4.10567845      10.40835172      -0.00027709      -0.00353464       0.00020997
Ti       2.92941051       6.23507945      11.57021079      -0.00206591       0.00230770       0.00323120
Ti       0.00663928       6.23510746      11.57027608       0.00203828       0.00216854       0.00276620
Ti       2.94261909       2.38446780      12.17726097      -0.00070244      -0.00404568       0.01216252
Ti       5.86549769       2.38445162      12.17730867       0.00052939      -0.00399074       0.01180606
Ti       1.46810398       4.51106237      13.49135936      -0.00019201      -0.01037298      -0.00100411
Ti       4.40407200       4.50683668      13.50439445       0.00005658      -0.01181129      -0.00036178
Ti       4.40404402       0.44181309      13.70542477       0.00006745       0.00702641      -0.01700199
Ti       1.46805821       0.45341369      13.70086018      -0.00003867       0.01015497      -0.01721458
Ti       5.84893918       2.46304780      14.99682711       0.00227388      -0.00018951      -0.01090241
Ti       2.95920302       2.46306717      14.99684042      -0.00236817      -0.00024439      -0.01103315
Ti       0.03828145       5.93113835      15.62388319       0.00079308       0.00074570       0.01458348
Ti       2.89786685       5.93111488      15.62389627      -0.00094454       0.00098413       0.01441280
Ti       4.40402206       3.90261824      16.85913373       0.00001280       0.01313980       0.00750963
Ti       1.46803815       3.89817409      16.90026710       0.00001125       0.01430678       0.00720616
Ti       4.40407692       1.05233471      17.15170114      -0.00001345      -0.00234969       0.01399716
Ti       1.46808125       1.06588275      17.10042858       0.00001426      -0.00605853       0.01429532
Ti       0.01068367       5.85748568      18.45348082       0.00038967      -0.00224720      -0.01493359
Ti       2.92534551       5.85749136      18.45347127      -0.00035266      -0.00228717      -0.01472207
Ti       2.98069857       2.82789097      19.03258108       0.00227472       0.01522468      -0.00389518
Ti       5.82734491       2.82788550      19.03262884      -0.00233203       0.01523961      -0.00438412
Ti       4.40398446       0.63928424      20.17680913      -0.00002147       0.01375139      -0.00241547
Ti       1.46800004       0.74722660      20.16273460       0.00004808       0.01123321      -0.00526189
Ti       1.46799547       4.78554639      20.69027573       0.00011629      -0.00496921       0.00022234
Al       4.40401686       4.74507141      20.66473122       0.00030998      -0.01289456       0.00116158
Ti       2.95775816       2.60756888      21.83565646       0.00432277       0.00662694       0.00394376
Ti       5.85020239       2.60757784      21.83565466      -0.00430249       0.00642939       0.00413881
Ti       2.92568207       6.53406571      22.40231603      -0.00073404       0.00422257       0.01092477
Ti       0.01031863       6.53406805      22.40230747       0.00066409       0.00415397       0.01115936
Ti       4.40397577       4.37816515      23.59921502       0.00004992      -0.00287854      -0.00326346
Ti       1.46798613       4.37775243      23.66292307      -0.00002964       0.00356354       0.00132511
Ti       4.40398171       1.56564952      24.04573379       0.00016220       0.00426312      -0.00975623
Ti       1.46798525       1.54928101      24.06843365      -0.00006701       0.00521571      -0.00907803
Ti       2.94637548       6.31953543      25.23806294       0.00266967       0.00082696       0.00052389
Ti       5.86157956       6.31952724      25.23813722      -0.00260677       0.00090268       0.00003634
Ti       5.86183318       3.26568098      25.84614403      -0.00228130       0.00046617      -0.00575570
Ti       2.94615089       3.26568187      25.84615888       0.00222958       0.00047375      -0.00566612
Ti       1.46800586       1.14570443      27.18405548      -0.00004660      -0.00240537       0.00542789
Ti       4.40398239       1.14901063      27.16648509      -0.00000442      -0.00493217      -0.00019836
