52
Lattice="4.6568 0.0 0.0 0.0 7.770572 0.0 0.0 0.0 25.044546" Properties=species:S:1:pos:R:3:forces:R:3 job_name=Segregation-1sol-CSL7-Al-Al-26-d-0.72 top_level=Segregation-1sol solute=Al energy=-396.94854076 stress_kbar_3x3="_JSON [[-13.1187636, 2.49734089, 9.02869837], [2.49734087, -24.87169022, 5.73871124], [9.02869838, 5.7387112, -18.92757366]]" pbc="T T T"
Ti       1.82934341       7.38508361       0.72233443      -0.00265077      -0.00197855       0.00199461
Ti       4.59688240       5.60172832       1.38574887      -0.00092944       0.00233526      -0.00110288
Ti       2.43627813       2.26820656       1.61562396      -0.00002409      -0.00140781      -0.00451549
Ti       4.53296518       0.61859540       2.07621006      -0.00005655      -0.00243498      -0.00157755
Ti       2.28242592       4.97249143       2.84005248       0.00097583      -0.00189986      -0.00434084
Ti       4.60966811       3.31589391       3.02761224      -0.00210230       0.00149390       0.00152012
Ti       2.22095037       7.74201918       3.64457704      -0.00114947      -0.00160112       0.00099053
Ti       4.59135525       6.06907540       4.10809169      -0.00082374      -0.00327958      -0.00203456
Ti       2.23462465       2.71683134       4.61013720      -0.00088289      -0.00189478      -0.00152911
Ti       4.55131033       1.06807612       4.99165599       0.00047342       0.00199224      -0.00202297
Ti       2.23016710       5.51115454       5.63792175      -0.00203250      -0.00106490       0.00232467
Ti       4.53585303       3.82130380       5.94917577      -0.00001625      -0.00243023       0.00063155
Ti       2.20365444       0.49419310       6.58136000       0.00010718       0.00023213       0.00023269
Ti       4.53263511       6.57541739       6.93272341      -0.00020171      -0.00189674       0.00403250
Ti       2.15865662       3.25161970       7.54586661      -0.00043145       0.00159461       0.00086300
Ti       4.50828307       1.59447529       7.88796726      -0.00326350       0.00016938       0.00190436
Ti       2.18199530       6.02145177       8.49380169      -0.00347285      -0.00083418      -0.00169080
Ti       4.41274122       4.33269019       8.87568208       0.00217835      -0.00067466       0.00069752
Ti       2.15262420       1.04781824       9.49118336       0.00150895      -0.00265488       0.00068842
Ti       4.47195636       7.12259688       9.69711492      -0.00014693      -0.00528290       0.00089240
Ti       1.87533574       3.76469076      10.55653792      -0.00195375      -0.00285435      -0.00518120
Ti       4.48897911       2.09007493      10.82726433      -0.00009224      -0.00091807       0.00331792
Ti       2.16334965       6.60334924      11.20680998      -0.00357876       0.00525244      -0.00211744
Ti       3.90582545       4.75524648      11.71749532       0.01570020       0.00215775       0.01151486
Ti       2.58098774       1.54207388      12.56047933      -0.00216048       0.00162166      -0.00072790
Ti       0.24898744       7.61493696      12.47447363      -0.00105496      -0.00078430      -0.00189539
Al       1.23902080       4.95074090      13.33751725      -0.01031911      -0.00602038      -0.01252315
Ti       3.30695436       6.58882177      13.94063016       0.00484329       0.00313322       0.00401055
Ti       0.60225308       2.22199970      13.93790202       0.00135779      -0.00027557       0.00308842
Ti       3.40976002       3.85961600      14.60435684       0.01067228      -0.00046197       0.00262738
Ti       0.98807730       7.24346092      15.27773221      -0.00273339       0.00140731      -0.00297538
Ti       3.23807672       1.18041959      15.54883560       0.00159008      -0.00062432      -0.00108601
Ti       1.03449439       4.49529657      16.15978358      -0.00276738       0.00253497       0.00038944
Ti       3.31606132       6.16756898      16.61352647      -0.00130682      -0.00044569      -0.00364640
Ti       0.91269816       1.75516304      17.07780044      -0.00010949       0.00002026       0.00107913
Ti       3.27137104       3.37786417      17.52845489       0.00072060       0.00152869      -0.00089151
Ti       0.95047915       6.71250229      18.11749568      -0.00121940       0.00104021      -0.00121689
Ti       3.25887922       0.63345177      18.46557334       0.00345470       0.00029420      -0.00037068
Ti       0.90830377       3.92714222      19.09776012      -0.00143204      -0.00266427       0.00010031
Ti       3.21957661       5.62962989      19.43371784       0.00114380       0.00273040       0.00027523
Ti       0.90480387       1.17640639      20.03727743      -0.00250984       0.00027877       0.00160259
Ti       3.21215604       2.81707027      20.45069531       0.00008244       0.00356034       0.00406124
Ti       0.86248505       6.15909239      20.95083897       0.00117782       0.00050399      -0.00017167
Ti       3.23024179       0.06560706      21.38579341      -0.00258328       0.00304112       0.00068105
Ti       0.84878106       3.38026612      22.02264435       0.00103938       0.00101653      -0.00231101
Ti       3.16637676       5.05672660      22.22204110      -0.00082486       0.00215547       0.00217908
Ti       0.92778054       0.65680946      22.96664186       0.00152713      -0.00051722       0.00174888
Ti       3.02312739       2.31086169      23.43063027       0.00008625      -0.00036814      -0.00009599
Ti       0.84768508       5.62434793      23.68456211      -0.00021570       0.00324937       0.00090498
Ti       3.62141911       7.41382054      24.32645452       0.00348541       0.00118129      -0.00225677
Ti       0.40270601       2.82282205       0.00629836      -0.00086139       0.00041127      -0.00103635
Ti       2.73388696       4.57261193       0.00566488       0.00178240       0.00033271       0.00296449
