64
Lattice="5.871999 0.0 0.0 0.0 6.890708 0.0 0.0 0.0 27.401158" Properties=species:S:1:pos:R:3:forces:R:3 job_name=Segregation-1sol-T1m-Al-Al-38-d-2.03 top_level=Segregation-1sol solute=Al energy=-492.00290219 stress_kbar_3x3="_JSON [[-10.37844028, 9.366e-05, 5.809e-05], [9.362e-05, -14.35088322, -1.31928953], [5.812e-05, -1.31928952, -15.44069094]]" pbc="T T T"
Ti       2.93607982       0.10436066      27.39941052      -0.00298693       0.00005549      -0.00065936
Ti       2.93598959       2.94263820      27.39924420      -0.00015057      -0.00158983      -0.00149645
Ti      -0.00001225       0.10434406      27.39940781       0.00298198       0.00029545      -0.00070973
Ti       0.00006540       2.94263544      27.39923935       0.00013730      -0.00178199      -0.00150935
Ti       4.40403683       5.03079943       1.41120720      -0.00003042      -0.00213893       0.00107364
Ti       1.46803873       5.03093515       1.41032409       0.00002687      -0.00316326      -0.00249029
Ti       4.40403380       1.32198678       2.02634962      -0.00000137       0.00026679      -0.00492538
Ti       1.46800729       1.31969493       2.02425487       0.00002213       0.00100612      -0.00318083
Ti       2.93560056       3.41243054       3.20438883       0.00030189      -0.00026268      -0.00375549
Ti       0.00045642       3.41243800       3.20437911      -0.00027028      -0.00027411      -0.00374219
Ti       2.93620105       6.23015854       3.61643514      -0.00113115       0.00012017      -0.00311904
Ti       5.87186273       6.23015329       3.61643081       0.00114725       0.00011581      -0.00309268
Ti       1.46802573       1.49593103       4.83209840       0.00000711      -0.00025619       0.00261843
Ti       4.40403617       1.49261541       4.83553608      -0.00002003       0.00176132      -0.00196747
Ti       1.46802130       4.44079891       5.43391232      -0.00008187       0.00420556       0.00072622
Ti       4.40403018       4.44162821       5.43670156      -0.00003155       0.00218423      -0.00189670
Ti       2.93260419       6.59804480       6.59732498      -0.00179513       0.00268359      -0.00098672
Ti       0.00343657       6.59804254       6.59732527       0.00178183       0.00268295      -0.00100833
Ti       2.93464296       2.52020097       7.09597365      -0.00311668       0.00445116      -0.00065468
Ti       0.00138446       2.52019408       7.09598598       0.00313757       0.00445541      -0.00068625
Ti       4.40399619       4.68239865       8.26012824       0.00000043       0.00602591       0.00050847
Ti       1.46799994       4.68788463       8.25976889       0.00002309       0.00165605      -0.00166695
Ti       4.40400116       0.73264670       8.84531543       0.00001312       0.00250231       0.00168031
Ti       1.46800430       0.73063680       8.87297703      -0.00000024       0.00389643      -0.00801484
Ti       0.00284841       2.90214492      10.07493237       0.00290510       0.00342719       0.00039264
Ti       2.93312787       2.90214367      10.07492935      -0.00290123       0.00343984       0.00037508
Ti       0.00973314       5.70516200      10.49629157       0.00369576      -0.00025761      -0.00068074
Ti       2.92625848       5.70515916      10.49629345      -0.00369364      -0.00026929      -0.00067487
Ti       1.46798389       0.93446794      11.67579683       0.00001914      -0.00889741       0.00872539
Ti       4.40398666       0.94259920      11.62074913       0.00006289      -0.00181785      -0.00111660
Ti       1.46799139       4.08696036      12.29156553       0.00000350       0.00774680      -0.01570563
Ti       4.40398925       4.08086176      12.28477590      -0.00000246       0.00116867      -0.00020237
Ti       2.98188553       2.09504268      13.69663366       0.00196222      -0.00301646       0.00239774
Ti       5.82610666       2.09505568      13.69662538      -0.00205605      -0.00306328       0.00252197
Ti       2.94591242       6.20363147      13.70039635      -0.00133913       0.00213780       0.00429908
Ti       5.86203997       6.20363535      13.70039439       0.00133330       0.00209752       0.00430274
Ti       4.40398851       3.98033768      15.13065621       0.00001570      -0.00344793       0.00232935
Ti       1.46799274       4.08701308      15.10191611      -0.00000164       0.00380217       0.01427453
Al       4.40399040       0.94094117      15.73450033       0.00007301       0.00154501      -0.00332655
Ti       1.46799470       0.95320545      15.78066017      -0.00004347      -0.00157668      -0.00365155
Ti       2.94147506       5.71875712      16.90820630      -0.00331695       0.00007170       0.00042305
Ti       5.86653949       5.71875771      16.90819958       0.00331835       0.00012372       0.00039316
Ti       2.92075277       2.86935648      17.33359552      -0.00135493       0.00340292      -0.00082807
Ti       0.01524456       2.86935549      17.33360392       0.00135574       0.00337908      -0.00083342
Ti       4.40402580       0.70146720      18.52836442      -0.00000961      -0.00424850       0.00412339
Ti       1.46801622       0.71705685      18.61390818       0.00000445      -0.00080574      -0.00358215
Ti       4.40400721       4.70306037      19.10057088      -0.00001743       0.00113828       0.00165649
Ti       1.46799927       4.65922702      19.13283333       0.00005188      -0.00420758      -0.00052692
Ti       5.85137871       2.51523312      20.30638718       0.00499304      -0.00011323       0.00060269
Ti       2.95668171       2.51522622      20.30638313      -0.00504211       0.00009443       0.00064805
Ti       5.85652222       6.57415137      20.80684284      -0.00057735       0.00138686       0.00362014
Ti       2.95150655       6.57416742      20.80682970       0.00060318       0.00126801       0.00362657
Ti       1.46803783       4.43261941      21.97245553       0.00004592      -0.00678383       0.00506181
Ti       4.40402232       4.43116187      21.96215536      -0.00002860       0.00163160       0.00123504
Ti       1.46804235       1.48561129      22.54884663      -0.00002714       0.00133526      -0.00186033
Ti       4.40403584       1.49205822      22.56806966      -0.00003674      -0.00287205       0.00265963
Ti       2.93581153       6.23099533      23.78107293      -0.00005697      -0.00504505       0.00038773
Ti       0.00027620       6.23099261      23.78107658      -0.00004559      -0.00507762       0.00040241
Ti       2.93534322       3.41035824      24.19626088       0.00221353      -0.00181091       0.00238181
Ti       0.00072316       3.41035340      24.19625421      -0.00211966      -0.00177082       0.00242674
Ti       4.40404627       1.32374945      25.37667507      -0.00001478      -0.00538686      -0.00330351
Ti       1.46803184       1.31766858      25.36561127      -0.00005285      -0.00135753       0.00726836
Ti       4.40403423       5.02974226      25.98775295       0.00002874      -0.00322457      -0.00152397
Ti       1.46802900       5.03250628      25.98617985       0.00008853      -0.00304380       0.00023676
