64
Lattice="5.088765 0.0 0.0 0.0 9.739025 0.0 0.0 0.0 22.303587" Properties=species:S:1:pos:R:3:forces:R:3 job_name=Segregation-1sol-T2-V-V-41-d-2.77 top_level=Segregation-1sol solute=V energy=-496.05250764 stress_kbar_3x3="_JSON [[-2.00284682, -3.96748396, -2.02152355], [-3.96748394, -16.48771414, -1.45308294], [-2.02152356, -1.45308292, -18.82248607]]" pbc="T T T"
Ti       2.57232206       9.34188979       0.11676899       0.00140852       0.01071422       0.00834435
Ti       0.03192930       4.47767083       0.11362849       0.00013228       0.01023761       0.00967915
Ti       1.29593187       2.03725347       0.56876549      -0.00411026       0.00835330      -0.00578160
Ti       3.84037556       6.90541621       0.57418977      -0.00103206       0.00399815      -0.00378990
Ti       2.59882141       4.31090810       1.28768966      -0.00761668       0.00473130      -0.01491464
Ti       0.04943986       9.18189211       1.29650815      -0.00223308       0.00513238      -0.01161639
Ti       1.00650058       6.42275179       2.13830043      -0.00805594       0.00565015      -0.00474024
Ti       3.54566816       1.55182387       2.13971027      -0.00927149       0.00641630      -0.00707698
Ti       0.27740015       3.64296288       2.78463406       0.00242692      -0.00506294      -0.00326475
Ti       2.81829092       8.50975707       2.79055554       0.00020077      -0.00213528      -0.00632493
Ti       1.10828587       0.95966276       3.48282995       0.00674675      -0.00262124      -0.00036581
Ti       3.65262364       5.82817519       3.47510552       0.00217178      -0.00667480       0.00165778
Ti       2.72092479       3.24832529       4.22135849      -0.00387242      -0.00287595       0.00721622
Ti       0.17515258       8.11250206       4.23106201      -0.00034063      -0.00594782       0.01063094
Ti       3.61178720       0.59606226       4.85875258       0.00128940      -0.00247501       0.00170184
Ti       1.06716683       5.47513103       4.86154609       0.00181802      -0.00142660       0.00585623
Ti       2.76845288       7.67422462       5.55631574      -0.00060028      -0.00526705       0.00881335
Ti       0.22190493       2.80457868       5.54609078       0.00269776       0.00072555      -0.00273447
Ti       3.61966985       5.01849808       6.29160040      -0.00291626       0.00482813      -0.00116481
Ti       1.06639127       0.13722233       6.30577595      -0.00115757      -0.00459029       0.00348903
Ti       0.23418503       7.20426760       7.04106886       0.00470463      -0.00519678      -0.00678991
Ti       2.79319477       2.35347743       6.99622829       0.00447626      -0.00170805      -0.00682932
Ti       1.10843720       4.54733672       7.65421984       0.00473652       0.00328906      -0.00922164
Ti       3.64158628       9.42127272       7.65710869      -0.00129233      -0.00886606      -0.00555337
Ti       0.19140991       1.93771546       8.37649480      -0.00144494      -0.00511030       0.00167350
Ti       2.72770700       6.79584173       8.36681786       0.00199572       0.00338776      -0.00329220
Ti       1.07133408       9.02609677       9.09756052       0.00712566      -0.00122769      -0.00048115
Ti       3.63069211       4.23072520       9.08419015       0.00040654       0.00009764       0.00171397
Ti       2.83466509       1.44845328       9.68892023      -0.00070621      -0.00330398       0.01143546
Ti       0.32706238       6.30350535       9.80751360      -0.00204597      -0.00160848       0.00489602
Ti       3.63135616       8.44935695      10.45728182       0.00001823       0.00004528       0.00145938
Ti       1.23391421       3.58059062      10.47631640       0.01024945      -0.00104754       0.01293169
Ti       0.12318626       0.89555330      11.22937941       0.00074256       0.00181937       0.00165378
Ti       2.59332347       5.78513825      11.45678614       0.00223012      -0.00036938       0.00499122
Ti       3.90419350       3.20781431      11.70844849      -0.00397193      -0.01012993       0.00482640
Ti       1.25884403       8.13628049      11.95802674       0.00298127       0.00157650      -0.00430266
Ti       2.67977966       0.82978985      12.39878732       0.00069506      -0.00467980      -0.00361672
Ti       0.06074426       5.65802993      12.52284436       0.00221434      -0.00252049       0.00016711
Ti       1.68493363       3.53092334      13.19404887       0.00343680      -0.00093447      -0.01900111
Ti       3.81441611       8.24301045      13.23708823       0.00421938      -0.00026348      -0.00703046
Ti       4.77207618       1.71257898      13.97193599       0.00254150       0.00203305      -0.00852997
V        2.07847932       6.47517627      14.08123867       0.00408496       0.00584145      -0.00674508
Ti       1.44803824       9.24940746      14.57866587      -0.00616478      -0.00543895      -0.00254192
Ti       3.90265766       4.40496849      14.64126953       0.00265797       0.00256522      -0.00610950
Ti       4.90010809       7.00329289      15.39883293      -0.00094239       0.00532391       0.00087287
Ti       2.41147806       2.09156170      15.42032675       0.00585469       0.00016357       0.00106373
Ti       1.40100263       4.69573487      15.89116238      -0.00138934      -0.00097597       0.00386539
Ti       3.99875201       9.59318156      15.98416158       0.00343951      -0.00341234       0.00642427
Ti       2.31627657       7.38741210      16.63878417      -0.00007195       0.00437076       0.00142445
Ti       4.88191596       2.52649933      16.67690873      -0.00535163      -0.00281157       0.00550909
Ti       3.98978990       5.16070694      17.43258155      -0.00150771       0.00241994      -0.00018060
Ti       1.44514702       0.28333626      17.43514179      -0.00019642      -0.00206886      -0.00062089
Ti       4.82200020       7.84738020      18.13970129      -0.00069600       0.00327197      -0.00353754
Ti       2.28667314       3.00009084      18.13099193      -0.00069430      -0.00052157       0.00212983
Ti       1.40862915       5.64177500      18.73511213      -0.00155455      -0.00119704      -0.00349324
Ti       3.96304666       0.77406313      18.74133134       0.00053394      -0.00206659      -0.01138375
Ti       2.35420634       8.22771546      19.49783491      -0.00120207      -0.00199128      -0.00242214
Ti       4.89796343       3.35736629      19.51437571       0.00011751      -0.00443999      -0.00112945
Ti       1.53304396       1.17577797      20.19672840       0.00194664      -0.00089726       0.00626231
Ti       4.06876255       6.04313076      20.20056580       0.00164881      -0.00309436       0.00468695
Ti       4.78900775       8.84822327      20.84146882      -0.00997027       0.00670898       0.00521963
Ti       2.24582010       3.97699227      20.83469284      -0.00473437       0.00239274       0.01068755
Ti       3.85046815       1.87985230      21.69054028      -0.00329042       0.00357474       0.01141512
Ti       1.30745936       6.75254725      21.67938749      -0.00351605       0.00529018       0.01188853
