52
Lattice="5.088765 0.0 0.0 0.0 5.495746 0.0 0.0 0.0 32.722931" Properties=species:S:1:pos:R:3:forces:R:3 job_name=Segregation-1sol-C1-Al-Al-28-d-1.38 top_level=Segregation-1sol solute=Al energy=-399.01479835 stress_kbar_3x3="_JSON [[-36.80230567, 0.8648753, -0.49005571], [0.86487531, -29.18327073, -3.70938892], [-0.49005573, -3.70938895, -18.30373455]]" pbc="T T T"
Ti       2.61561911       0.79093885       0.03718537      -0.00102198      -0.00218956       0.00260207
Ti       0.01271283       1.60438299       1.38339188       0.00061603       0.00064407       0.00387607
Ti       0.79601741       4.34801445       1.37176270      -0.00249395       0.00076721      -0.00028028
Ti       2.57667930       2.36133762       2.58527102       0.00153123       0.00099517       0.00191947
Ti       3.37317076       5.10472596       2.59993211       0.00227631       0.00130020       0.00330923
Ti       0.81593035       0.39157021       3.82004873       0.00232908       0.00024685       0.00080156
Ti       0.03989233       3.13851657       3.84855447       0.00481030       0.00072672       0.00250285
Ti       3.36474584       1.18478028       5.07723194       0.00228340       0.00279823       0.00131796
Ti       2.55626446       3.93796560       5.07877037       0.00267866       0.00363298       0.00260010
Ti       0.02604709       4.71453385       6.30609704       0.00077066       0.00382862      -0.00134557
Ti       0.85192974       1.95434891       6.33065314       0.00229420       0.00299117       0.00009374
Ti       3.38618145       2.74599448       7.53711983       0.00147212       0.00355662       0.00240022
Ti       2.58420102       5.49105311       7.58960656       0.00196981       0.00490577      -0.00003507
Ti       0.81765169       3.55776641       8.80722352       0.00021217       0.00794681       0.00002244
Ti       0.00443215       0.81532832       8.81967957       0.00107159       0.00659514       0.00418469
Ti       2.57378051       1.60176868      10.02372973       0.00008384       0.00934755       0.00385564
Ti       3.41631617       4.32318823      10.08881018      -0.00167023       0.00900632       0.00228645
Ti       0.86478289       5.12058959      11.25158580       0.00070449       0.01278026       0.00294994
Ti       0.08480834       2.36704845      11.34652224       0.00200787       0.01193118       0.00166760
Ti       3.33172108       0.46258856      12.51092004       0.00269386       0.00998602       0.00012749
Ti       2.56854608       3.21319844      12.58885313       0.00085079       0.00888944      -0.00047481
Ti       0.02966248       4.00502971      13.71508573       0.00352798       0.01145479       0.00575912
Ti       0.86266649       1.21472770      13.86190028       0.00220509       0.01725575      -0.00645784
Ti       2.75515828       4.78197942      15.05160900      -0.01161087       0.00883495       0.00012849
Ti       3.47561184       2.00823859      14.94738257      -0.00027687       0.00926010       0.00492807
Ti       0.78117089       2.91303587      16.16846564       0.00471439      -0.00491495      -0.00015756
Ti       0.11478099       0.15933419      16.55631172      -0.00135406      -0.00821796      -0.01427963
Ti       3.05792657       1.81719343      17.61357383       0.00039246      -0.00580516       0.00679420
Al       2.55979064       4.57918507      17.76727519      -0.00627078      -0.00839083      -0.00471895
Ti       0.02390772       3.70312465      18.85553409       0.00565565      -0.00948425       0.00256071
Ti       0.93836027       1.02825113      19.12584242       0.00177736      -0.00321082       0.00010891
Ti       3.49261032       0.39196218      20.05004247      -0.00249533      -0.00125949       0.00203972
Ti       2.55726277       3.12332013      20.19828914      -0.00370120      -0.01342618       0.00328819
Ti       0.72344897       5.03694823      21.43369571       0.00461530      -0.00133459       0.00029526
Ti       5.05099360       2.31439758      21.47198659       0.00211422      -0.00860678      -0.00144470
Ti       2.52026781       1.48976987      22.58050814       0.00099922      -0.00412718      -0.00104618
Ti       3.35954483       4.26949186      22.72063767      -0.00249686      -0.00833074      -0.00395404
Ti       0.01100823       0.78423044      23.93700169      -0.00149625      -0.00552404      -0.00349559
Ti       0.84662993       3.51197893      23.90868098      -0.00111730      -0.00993302       0.00097401
Ti       3.33099003       2.71693613      25.12331879       0.00046218      -0.00642400      -0.00168100
Ti       2.52796816       5.47656371      25.16802643      -0.00170787      -0.00422966       0.00045639
Ti       0.80794763       1.94323821      26.43170026      -0.00361541      -0.00567939      -0.00244343
Ti       5.07944216       4.68277919      26.38861114      -0.00348350      -0.00484220      -0.00187246
Ti       2.56229659       3.92226867      27.65015451      -0.00237550      -0.00543038      -0.00300672
Ti       3.37271134       1.17166689      27.63758006      -0.00091357      -0.00704967      -0.00223320
Ti       0.79345299       0.38036359      28.87739375      -0.00054342      -0.00155649      -0.00430502
Ti       0.01430648       3.13286583      28.90746843      -0.00323884      -0.00607411      -0.00247380
Ti       2.55123068       2.35821977      30.11920349      -0.00308818      -0.00551354      -0.00079823
Ti       3.34685149       5.10963774      30.14250059      -0.00311802      -0.00205676      -0.00132057
Ti       0.82270816       4.34944257      31.33990552       0.00135133      -0.00114858      -0.00055057
Ti       0.04604261       1.59974831      31.35338246       0.00215902      -0.00225865       0.00223393
Ti       3.30752264       3.53908170      32.69018835      -0.00254060      -0.00266291      -0.00770934
