52
Lattice="4.6568 0.0 0.0 0.0 7.770572 0.0 0.0 0.0 25.044546" Properties=species:S:1:pos:R:3:forces:R:3 job_name=Segregation-1sol-CSL7-V-V-36-d-5.61 top_level=Segregation-1sol solute=V energy=-401.38566186 stress_kbar_3x3="_JSON [[-19.67829378, -0.02412089, -0.03385003], [-0.02412092, -25.24975224, 0.21533141], [-0.03385, 0.21533138, -23.66211758]]" pbc="T T T"
Ti       1.81264297       7.39382563       0.69201616      -0.00960629      -0.00131478       0.00814411
Ti       4.63212737       5.60037824       1.35149436      -0.00039890       0.00093596       0.00549915
Ti       2.45663336       2.27653624       1.60165870      -0.00216971       0.00060317       0.00734663
Ti       4.56591557       0.62562627       2.07324491       0.00091450      -0.00399436       0.00404059
Ti       2.35585421       5.01100091       2.81523227      -0.00215463      -0.00172103       0.00640269
Ti       0.02345652       3.33727383       3.00486945       0.00016323       0.00004084       0.00547043
Ti       2.30912006       0.01262882       3.64253031      -0.00390071      -0.00134429       0.00677911
Ti       0.02920849       6.10518603       4.08494330      -0.00058235       0.00106927      -0.00303288
Ti       2.33992343       2.76663291       4.59445611      -0.00189661      -0.00043197       0.00276190
Ti       0.00322913       1.11718139       4.99280816      -0.00099666      -0.00039175      -0.00197267
Ti       2.34487685       5.56947419       5.61505391       0.00136365      -0.00151217      -0.00177694
Ti       0.00737748       3.87344887       5.94728397      -0.00001873       0.00317927      -0.00004280
Ti       2.33547359       0.56667017       6.57804824      -0.00000592      -0.00198323      -0.00053988
Ti       0.01578575       6.64214912       6.91830441       0.00158459       0.00182632      -0.00539999
Ti       2.33318223       3.32384556       7.53367525      -0.00284186       0.00080965       0.00038553
Ti       0.01180678       1.67313948       7.93088145      -0.00162810       0.00256874      -0.00269013
Ti       2.35642176       6.10769468       8.44859838       0.00171457      -0.00219224      -0.00689041
Ti       4.64018612       4.42676261       8.88221110      -0.00514026       0.00215491      -0.00883924
Ti       2.35016017       1.10590499       9.51700848       0.00173293      -0.00275885      -0.00605158
Ti       0.02406341       7.20439046       9.72099235      -0.00131064      -0.00065770      -0.01170277
Ti       2.23488236       3.82071269      10.45867525      -0.00211439      -0.00377640      -0.01147443
Ti       0.13262006       2.16437276      10.92513869      -0.00181875       0.00293259      -0.00893323
Ti       2.29746972       6.61445230      11.17943944       0.00079225      -0.00064982      -0.01165094
Ti       4.15147108       4.82821635      11.82530943      -0.00480644      -0.00250183      -0.00616554
Ti       2.71490489       1.63644717      12.53697108      -0.00738528       0.00011089      -0.00401462
Ti       0.39416249       7.64574083      12.57305331      -0.00872468      -0.00160372      -0.00457610
Ti       1.25831055       4.82242564      13.25757683       0.00895901      -0.00084888      -0.00335935
Ti       3.10993224       6.59318511      13.92831707      -0.00243048       0.00450406      -0.00450287
Ti       0.62532499       2.17232027      14.15792496       0.00583370      -0.00197735      -0.00790546
Ti       3.17486654       3.80863905      14.60446655      -0.00231698       0.01080382      -0.00071090
Ti       0.70860710       7.19047817      15.44450675       0.00811437       0.00039393      -0.01157120
Ti       3.03514855       1.11286371      15.50584801       0.00706186       0.00424554      -0.00093956
Ti       0.78627258       4.43542535      16.18244882      -0.00388415      -0.00251106       0.00653001
Ti       3.05965621       6.09753992      16.66997694       0.00402980       0.00854201      -0.00513997
Ti       0.73325997       1.66827467      17.12452348       0.00724191      -0.00179831      -0.00850726
Ti       3.08206870       3.28646397      17.50991252       0.00134900       0.00724021      -0.00105277
V        0.72433666       6.61583326      18.13945555       0.00247959       0.01224091      -0.00195229
Ti       3.07254313       0.50593818      18.44219510      -0.00013426      -0.00327038       0.00299089
Ti       0.74241606       3.90036116      19.07397262      -0.00227788      -0.00563745       0.00291023
Ti       3.05703893       5.58802917      19.39997488       0.00007839       0.01246496      -0.00535430
Ti       0.74785566       1.10955879      20.01569237      -0.00119089      -0.00630189       0.01097596
Ti       3.07120455       2.76098701      20.41827821       0.00098489       0.00572769       0.01580440
Ti       0.72171050       6.13121721      20.89948169       0.00045405       0.00405336      -0.00054063
Ti       3.11113242       0.02790329      21.40576296       0.00415674      -0.00141290       0.00517146
Ti       0.72758282       3.33835261      21.99889666       0.00187601      -0.00485988       0.00920868
Ti       3.04994607       5.01319221      22.18211927       0.00437996      -0.00411120       0.00664680
Ti       0.84496321       0.63387841      22.93928370      -0.00772265      -0.01250094       0.00868756
Ti       2.95316473       2.28540926      23.41192582       0.00273906      -0.00312143       0.01126869
Ti       0.77554406       5.60355988      23.64632080      -0.00056047       0.00137813       0.00339526
Ti       3.59650604       7.39855187      24.32047387       0.00643517      -0.00705130       0.00417780
Ti       0.37658546       2.80601168      25.02931300       0.00306684      -0.00284140       0.00728617
Ti       2.70195735       4.57455030      25.02507544       0.00051255      -0.00274773       0.00540667
