100
Lattice="4.4265 -2.555641 0.0 3.767997 6.526363 -0.031456 0.0 0.0 45.781652" Properties=species:S:1:pos:R:3:forces:R:3 job_name=Segregation-1sol-CSL13-V-V-64-d-6.97 top_level=Segregation-1sol solute=V energy=-775.53504091 stress_kbar_3x3="_JSON [[-38.18622778, -3.0976014, 1.13689983], [-3.09760144, -39.94921985, -0.14617942], [1.13689985, -0.14617941, -17.93848227]]" pbc="T T T"
Ti       2.47148540      -0.94298505      45.75820256      -0.00277417      -0.00005584       0.00436353
Ti       5.76132277       1.51013891      45.74362328       0.00152770      -0.00123588       0.00410779
Ti       4.96374233      -0.84143282       1.37016626       0.00407013       0.00333916       0.00943914
Ti       4.59140491       3.72098684       1.35335471       0.00162838       0.00085995       0.00545326
Ti       7.08776345       3.81648770       2.64144824      -0.00061888       0.00258628       0.00358668
Ti       3.78988882       1.36734596       2.65667522       0.00439423       0.00097062       0.00329137
Ti       1.64441926      -0.48772234       2.84010552       0.00030624      -0.00015733       0.00158689
Ti       2.12766875       3.58561920       2.82605750      -0.00326579      -0.00037271       0.00074884
Ti       4.68755557       3.62568780       4.14623148       0.00046417       0.00122635       0.00219526
Ti       4.82344941      -0.80375793       4.16145811      -0.00142556       0.00256143       0.00321788
Ti       3.43144461       5.84461355       5.27261609       0.00000616       0.00226038       0.00356781
Ti       2.94234684       1.77573983       5.28800823       0.00129017       0.00136740       0.00436417
Ti       2.40170159      -0.99054826       5.71922063      -0.00119675      -0.00095957      -0.00122852
Ti       5.73103317       1.43734413       5.70246688      -0.00172480       0.00205647       0.00035521
Ti       4.29778612       3.72970915       6.94503384       0.00145047      -0.00059882       0.00204778
Ti       5.09981391      -1.08494715       6.95952447       0.00012947       0.00071371       0.00124370
Ti       6.92919521       3.59163228       7.87186187      -0.00281009      -0.00027409       0.00381539
Ti       3.66558091       1.12554637       7.88798784       0.00080763      -0.00180037       0.00508044
Ti       6.37544681       0.88065199       8.58362419      -0.00239969       0.00186867       0.00230989
Ti       1.59544547      -0.71134301       8.60142312       0.00252202      -0.00224814       0.00014445
Ti       4.78150018       3.19096575       9.68717272       0.00103008       0.00157194       0.00369866
Ti       4.39278126      -0.93683095       9.70114830       0.00088768       0.00373607       0.00369699
Ti       3.18378152       5.41827683      10.49172322       0.00144548      -0.00408491      -0.00300217
Ti       2.69139985       1.35052417      10.50419349      -0.00449698      -0.00017900      -0.00316661
Ti       5.89891055       5.20980545      11.42634605      -0.00381739      -0.00008011      -0.00300856
Ti       5.57962610       1.04510517      11.44026144       0.00267332      -0.00188553      -0.00216849
Ti       0.59268046       0.93502787      12.38396164       0.00195885       0.00251983       0.00190230
Ti       3.86694336       3.39451312      12.36621284      -0.00319920       0.00329824      -0.00134481
Ti       3.31820099       0.66922070      13.18682574      -0.00096667      -0.00311238      -0.00638389
Ti       6.70640063       3.06509814      13.17437379      -0.00393645      -0.00186225      -0.00602779
Ti       5.10778026       5.38374524      14.27942730       0.00072499      -0.00197278      -0.00345157
Ti       6.11859646       0.44939735      14.29782620      -0.00347246      -0.00004649      -0.00359514
Ti       4.55414889       2.67693253      14.98394532       0.00085859       0.00002286      -0.00527721
Ti       4.05042651      -1.38666717      15.00045147      -0.00011825       0.00017693      -0.00384975
Ti       7.18115617       2.54891696      15.91714884      -0.00217226      -0.00294956      -0.00202059
Ti       2.62597211       0.82846926      15.92869639       0.00163024      -0.00368001      -0.00440626
Ti       5.75607753       4.85376932      17.15784759       0.00026234      -0.00020392       0.00147608
Ti       5.32580008       0.75186428      17.17179408       0.00224908      -0.00028646      -0.00066381
Ti       3.63906879       3.00247545      17.58418185      -0.00021348      -0.00274960      -0.00338736
Ti       0.35855916       0.54822391      17.59997711       0.00012630       0.00124214       0.00060133
Ti       2.90735554       0.57756183      18.73233091       0.00119245      -0.00732489       0.00680625
Ti       6.80848471       2.67657065      18.71056276      -0.00154725       0.00060253       0.00065983
Ti       4.95147229       5.28146492      20.02043184      -0.00052036      -0.00458649      -0.00308611
Ti       1.66047126       2.83370350      20.03593582      -0.00724980       0.00155399      -0.00333623
Ti       4.41577232       2.50279307      20.22686755      -0.00385327       0.00382876      -0.00294567
Ti       3.94738164      -1.57679272      20.23853343       0.00343982      -0.00096907      -0.00337178
Ti       6.92750152       2.60352335      21.49749832       0.00146798       0.00418502      -0.01681452
Ti       2.77258128       0.64733434      21.51820729      -0.00558228      -0.00643179      -0.00681427
Ti       3.62486194       2.97412178      22.91749866       0.00390032      -0.00693676      -0.00774429
Ti       0.31442158       0.53455108      22.93479981      -0.00179190      -0.00115102      -0.00689562
Ti       5.75462467       4.83256635      22.85173601       0.00413358      -0.00180045      -0.00602267
Ti       5.28543249       0.75294361      22.86362105      -0.00088919      -0.00227062      -0.00674174
Ti       2.80383080       0.66156427      24.29226989      -0.00065263      -0.00663885       0.01710986
Ti       6.90200507       2.63971454      24.26877599      -0.00376691       0.00041243      -0.00402846
Ti       3.95724104      -1.53821911      25.64132171       0.00126625       0.00792716      -0.00517280
Ti       4.41110239       2.55145371      25.62812356      -0.00855320       0.00230929       0.00022823
Ti       6.08788039       0.32553498      25.70399824      -0.00339989      -0.00307137       0.00254156
Ti       4.96287621       5.32251163      25.67179632       0.00299430      -0.00298908      -0.00472241
Ti       2.85651883       0.67296879      27.04895315       0.00093285       0.00423287      -0.01073537
Ti       6.87053291       2.71009527      27.03288261      -0.00153624      -0.00584300       0.01354495
Ti       0.34482440       0.58465059      28.33146546      -0.00364029      -0.00335554       0.00741912
Ti       3.59899451       3.08911162      28.31488875      -0.00473119       0.00558422       0.00196246
Ti       5.29849107       0.86342669      28.54317013       0.00732048       0.00722766       0.00704941
Ti       5.77668029       4.87831093      28.49302155       0.00247050      -0.00606166       0.00869791
V        7.02615127       2.69309483      29.75759613       0.00667995       0.00467773       0.00652311
Ti       2.72514574       0.83170265      29.84152024       0.00286762      -0.00571816       0.00537423
Ti       4.57820958       2.72725244      30.87168344       0.00388868       0.00240317       0.00043214
Ti       3.95600606      -1.45450091      30.88235361       0.00000521       0.00218276      -0.00400263
Ti       6.15003120       0.48689849      31.32346179       0.00370896       0.00709850      -0.00427858
Ti       4.98561062       5.45332786      31.29074502       0.00272374      -0.00671597      -0.00546443
Ti       3.27693231       0.65767351      32.58077400       0.00176228       0.00398899       0.00094836
Ti       6.83947085       2.97840894      32.56667932      -0.00703352      -0.00687504      -0.00235769
Ti       3.83243628       3.29030411      33.47794366      -0.00365593       0.00310798      -0.00508530
Ti       0.62920211       0.91569579      33.41754880       0.00226340       0.00264987       0.00171179
Ti       5.87788213       5.16491014      34.16077391       0.00100469       0.00553352       0.00085861
Ti       5.57996426       1.02817226      34.23924791       0.00020367      -0.00288809      -0.00369936
Ti       3.19211778       5.37311067      35.27694606      -0.00134635       0.00358693       0.00461904
Ti       2.72771071       1.26595492      35.28330958       0.00016918      -0.00624682       0.00601594
Ti       4.84767851       3.14918216      36.06987374       0.00265306       0.00196755      -0.00197357
Ti       4.35351021      -0.96478867      36.06101658      -0.00099925      -0.00236975       0.00253241
Ti       6.38841480       0.84782088      37.09572677       0.00026090       0.00214114      -0.00013366
Ti       1.66262718      -0.73721558      37.13438427       0.00193500       0.00210399       0.00220487
Ti       6.95633947       3.53199404      37.90496295       0.00060276       0.00187425       0.00390208
Ti       3.69900339       1.09697702      37.89200020      -0.00357062      -0.00514751       0.00651318
Ti       4.28537918       3.74836297      38.76530733       0.00471173       0.00574704       0.00184761
Ti       5.16675388      -1.11302925      38.77391658       0.00154652       0.00000257      -0.00161022
Ti       5.80108670       1.42868660      39.98691871       0.00249506      -0.00268827       0.00325697
Ti       2.42359779      -0.98294993      40.01913916       0.00168613       0.00186208       0.00121050
Ti       3.47391751       5.84183160      40.48025114      -0.00111215       0.00096978      -0.00339238
Ti       2.97588238       1.76326093      40.47700395      -0.00387505      -0.00303254      -0.00075254
Ti       4.74729797       3.61462785      41.54866096      -0.00090104      -0.00297471      -0.00394578
Ti       4.84173806      -0.77748661      41.56550441       0.00767273       0.00600702      -0.00950705
Ti       2.15132759       3.59204066      42.88199595      -0.00331981      -0.00062686      -0.00396953
Ti       1.67743273      -0.48088075      42.89939494       0.00269283      -0.00270685      -0.00454055
Ti       7.11413932       3.82309285      43.07653027      -0.00020794      -0.00086791      -0.00179594
Ti       3.81901695       1.37563269      43.09175034      -0.00471199       0.00246411      -0.00373354
Ti       4.60462911       3.73168583      44.35315956       0.00181176       0.00901029       0.00087364
Ti       4.98167619      -0.84176356      44.37376033       0.00128373      -0.00013011       0.00671682
Ti       3.47928343       5.92283438      45.74961283       0.00059697      -0.00033116       0.00340050
Ti       3.00937305       1.84515423      45.75966284       0.00026809      -0.00007556       0.00440098
