52
Lattice="5.088765 0.0 0.0 0.0 5.495746 0.0 0.0 0.0 32.722931" Properties=species:S:1:pos:R:3:forces:R:3 job_name=Segregation-1sol-C1-V-V-30-d-2.59 top_level=Segregation-1sol solute=V energy=-402.87246904 stress_kbar_3x3="_JSON [[-40.04274916, -0.00816202, -0.05549312], [-0.00816204, -31.43996868, 0.75358058], [-0.05549312, 0.75358059, -21.14289046]]" pbc="T T T"
Ti       2.62329416       0.79825501      32.70906032       0.00090493      -0.00413393      -0.00175634
Ti       0.03375160       1.60270613       1.37361617       0.00264936       0.00293659       0.00200181
Ti       0.81698780       4.34901310       1.37564469      -0.00070097       0.00665775       0.00185694
Ti       2.57135181       2.35853018       2.58955533      -0.00250494       0.00470460       0.00612267
Ti       3.36831159       5.10532110       2.58918517       0.00173154       0.00372047       0.00471796
Ti       0.81148611       0.39055477       3.83132504      -0.00237926      -0.00503898       0.00706085
Ti       0.03558162       3.13848004       3.83459115       0.00314534      -0.00463062       0.00524881
Ti       3.37181271       1.18221737       5.08183445       0.00236209       0.00043720      -0.00366555
Ti       2.56481035       3.93250409       5.07925459      -0.00049979      -0.00145617      -0.00000747
Ti       0.01693527       4.70314668       6.32238601      -0.00014258       0.00064380       0.00037591
Ti       0.83819269       1.95309543       6.32233507       0.00209117       0.00068761       0.00301943
Ti       3.37743001       2.73738147       7.56990052      -0.00081898      -0.00102827      -0.00019088
Ti       2.56738291       5.48562699       7.57715573       0.00110370      -0.00176565      -0.00207465
Ti       0.83538026       3.53406014       8.81694546      -0.00208848      -0.00161649      -0.00125634
Ti       0.01882273       0.78619157       8.81995559      -0.00145963       0.00016555      -0.00123380
Ti       2.56223389       1.56442619      10.06253950       0.00229331      -0.00498135       0.00338865
Ti       3.38815825       4.30833015      10.06870380      -0.00059998      -0.00400893       0.00407333
Ti       0.83712334       5.08256865      11.30507438       0.00067156       0.00251488       0.00626997
Ti       0.03663268       2.33271881      11.31682702       0.00073142      -0.00284194       0.00765996
Ti       3.36841699       0.38057654      12.55609555      -0.00516079       0.00152747      -0.00180614
Ti       2.57822254       3.12755125      12.56785274       0.00603706       0.00481564      -0.00177235
Ti       0.02594214       3.88499875      13.78782051      -0.00575547      -0.00959866      -0.00648375
Ti       0.83745347       1.13465421      13.81993049       0.00307525      -0.00997978       0.00151867
Ti       2.63500718       4.63634157      15.00832040       0.00676647      -0.00919063       0.00666646
Ti       3.38271158       1.89750211      15.00756066       0.00403125      -0.00496974       0.00471365
Ti       0.77034445       2.70279973      16.47043152      -0.00305287       0.00029499      -0.00617726
Ti       0.04205785       5.49077650      16.50301768      -0.00398939       0.00318390      -0.00850677
Ti       3.41285675       2.02163908      17.76740332      -0.00268260       0.01490288      -0.00166324
Ti       2.47531876       4.78188980      17.73970072      -0.00792025       0.01018234       0.00080987
Ti       0.07904563       3.96331145      18.96479253       0.00902504       0.00529586       0.00794165
V        0.70143101       1.23825360      18.90716593      -0.00808419       0.00856131       0.00136935
Ti       3.29517303       0.37047695      20.15314724       0.00265266      -0.00380216       0.00754745
Ti       2.52344035       3.08162840      20.19072709      -0.00223839      -0.00129215      -0.00688394
Ti       0.85667302       5.12519875      21.40671205      -0.00220339       0.00048617      -0.00562817
Ti       5.08670130       2.33753086      21.34706508      -0.01206727       0.00117681      -0.00309969
Ti       2.58827564       1.58526191      22.66522022       0.00099821      -0.00348564       0.00472503
Ti       3.38447087       4.33949468      22.60951054       0.01379568       0.00825414      -0.00236630
Ti       0.01526122       0.77349181      23.89420429       0.00562701       0.00791907      -0.00315817
Ti       0.80510030       3.53050912      23.85815374      -0.00124957      -0.01030067       0.00597438
Ti       3.38695584       2.73582197      25.15436377      -0.00713803       0.00565896      -0.01004277
Ti       2.55987376       5.47477776      25.12510774      -0.00624482      -0.00336538      -0.00733944
Ti       0.85258687       1.96343510      26.36816975       0.00557312       0.00106311      -0.00110431
Ti       0.02620048       4.70998343      26.37813164       0.00201240       0.00360594       0.00614180
Ti       2.57490499       3.93393333      27.63931399       0.00435261      -0.00345618      -0.00269149
Ti       3.36877157       1.18361359      27.62143724       0.00434555      -0.00665606       0.00192399
Ti       0.81969853       0.38589579      28.87584694      -0.00751612       0.00262692       0.00594969
Ti       0.03989444       3.13231837      28.87051971      -0.00171775      -0.00348165      -0.00088042
Ti       2.57787906       2.36136007      30.11849345      -0.00004572       0.00209860      -0.00437830
Ti       3.37891686       5.10927014      30.11897339      -0.00425989       0.00023617      -0.00795369
Ti       0.81958012       4.35162953      31.33150963       0.00461004       0.00014751      -0.00964580
Ti       0.03722362       1.60527451      31.33335578      -0.00048254       0.00090842      -0.00500200
Ti       3.31486920       3.54406829      32.71319165       0.00241691      -0.00433360      -0.00030922
