64
Lattice="5.088765 0.0 0.0 0.0 9.739025 0.0 0.0 0.0 22.303587" Properties=species:S:1:pos:R:3:forces:R:3 job_name=Segregation-1sol-T2-V-V-43-d-3.50 top_level=Segregation-1sol solute=V energy=-496.00518633 stress_kbar_3x3="_JSON [[0.16657442, 5.92016072, 0.13338321], [5.92016073, -18.57085034, 8.5809731], [0.13338326, 8.58097311, -18.03610179]]" pbc="T T T"
Ti       2.59849942       9.32662535       0.04709615      -0.00266965       0.00354690       0.00038442
Ti       0.05368596       4.45661508       0.04799902      -0.00365683       0.00332352       0.00061271
Ti       1.33374857       2.00200371       0.58652942       0.00272981      -0.00338776       0.00151759
Ti       3.87262129       6.87011566       0.57946085       0.00259838      -0.00466185       0.00112366
Ti       2.66316182       4.24725067       1.32685634       0.00212001      -0.00072581       0.00091529
Ti       0.11772350       9.11551999       1.32509356       0.00163610      -0.00046788       0.00168809
Ti       1.00096961       6.29925932       2.13838111      -0.00157560       0.00114285       0.00015101
Ti       3.54757033       1.42669936       2.14336921      -0.00095561       0.00081461       0.00034312
Ti       0.25850797       3.52930707       2.75015403      -0.00333875       0.00018762       0.00101761
Ti       2.80256467       8.40072155       2.74608900      -0.00258833      -0.00073891       0.00170766
Ti       1.11076430       0.86168655       3.52012999      -0.00016568      -0.00114051       0.00087722
Ti       3.65453292       5.73302484       3.51307567       0.00035036      -0.00066702       0.00009782
Ti       2.75787145       3.12101690       4.18245915      -0.00143830       0.00032744       0.00033412
Ti       0.21480024       7.99294257       4.18394701      -0.00057179       0.00014246      -0.00085852
Ti       3.59848278       0.41239614       4.84661208       0.00109378       0.00064123       0.00140885
Ti       1.05354659       5.28513014       4.84092568       0.00266229       0.00008596       0.00226281
Ti       2.73481575       7.49385916       5.58345574      -0.00113120      -0.00022013       0.00007192
Ti       0.19164473       2.62578084       5.58675912      -0.00001347       0.00088477       0.00011023
Ti       3.60404535       4.82670649       6.32763587       0.00292540       0.00015476       0.00189799
Ti       1.06250360       9.69166902       6.34170635       0.00434798      -0.00011359       0.00214458
Ti       0.16407160       7.04007268       6.89708177      -0.00144852       0.00350415      -0.00148445
Ti       2.70664150       2.17037835       6.89938270      -0.00345687       0.00122276      -0.00233524
Ti       1.11245579       4.45953582       7.65770495      -0.00037918      -0.00193749      -0.00318691
Ti       3.65015550       9.31327440       7.65664821       0.00071044      -0.00070788      -0.00207757
Ti       0.30172484       1.77275269       8.36610022       0.00218240       0.00086992      -0.00083675
Ti       2.85650960       6.65049140       8.37218275       0.00138461       0.00016566       0.00237116
Ti       0.88550960       8.57199908       9.04044153      -0.00253024      -0.00499878      -0.00358667
Ti       3.45606787       3.73335594       9.00436177       0.00020313      -0.00365168      -0.00119542
Ti       2.56128404       0.92220838       9.86030249       0.00059545      -0.00055305      -0.00260233
Ti       0.01769216       5.80676717       9.89772640       0.00320847       0.00135068      -0.00291490
Ti       3.78984896       8.05540031      10.70372577      -0.00006766      -0.00506905      -0.00105624
Ti       1.27300716       3.17782936      10.66228185      -0.00291276       0.00145326       0.00281499
Ti       0.00092566       0.73482388      10.97673414       0.00489844       0.00538888       0.00080192
Ti       2.55017968       5.60769888      10.96397088      -0.00181314       0.00566290      -0.00484889
Ti       3.82151538       3.29734047      11.72188316       0.00578358       0.00062791       0.00181933
Ti       1.22944000       8.13656781      11.78035131       0.00223861      -0.00005208      -0.00033628
Ti       2.15779632       1.17765867      12.57379943      -0.00657431      -0.00001645      -0.00099365
Ti       4.67519313       5.94172183      12.65527156      -0.00556268       0.00114901       0.00699996
Ti       1.73294448       4.20615035      13.28185395       0.00209460       0.00029942       0.00361242
Ti       4.17596600       9.08860062      13.29046102       0.00371648      -0.00003500       0.00453519
Ti       4.98321245       2.11048058      13.98756276       0.00026238      -0.00168944      -0.00078035
Ti       2.48047501       6.85441372      14.00285478       0.00375282      -0.00575651      -0.00216932
Ti       1.39336271       9.42661051      14.75021676       0.00009787       0.00056753       0.00424162
V        3.88589828       4.57386505      14.85052052      -0.00193552       0.00116098      -0.00066959
Ti       4.98137383       7.12634048      15.21408645      -0.00000317       0.00141104      -0.00087729
Ti       2.43468864       2.25781494      15.20859627       0.00375284      -0.00052345       0.00169813
Ti       1.40107703       4.84591381      15.94516089      -0.00087165       0.00023825       0.00086889
Ti       3.99334009       0.02025297      15.97091984      -0.00368463       0.00164877      -0.00184372
Ti       2.30418704       7.52128999      16.72948993       0.00257427       0.00051352      -0.00072179
Ti       4.83824515       2.67512649      16.71201862       0.00128701       0.00080105       0.00018483
Ti       4.06448358       5.41884565      17.39897715      -0.00170632      -0.00092142       0.00205729
Ti       1.54198830       0.53203295      17.43901689      -0.00214014      -0.00144604       0.00038969
Ti       4.92836580       8.05361794      18.11190634       0.00281008       0.00032615       0.00431880
Ti       2.37729186       3.18665753      18.11040025       0.00308930      -0.00009299       0.00027524
Ti       1.44533358       5.79016981      18.81021356      -0.00309684       0.00362387      -0.00074123
Ti       3.99735436       0.93463309      18.82712004      -0.00172889       0.00177471       0.00039500
Ti       2.38796252       8.37814090      19.48929790      -0.00540877       0.00290713      -0.00309295
Ti       4.92983719       3.52137930      19.48424607      -0.00477985       0.00312844      -0.00266379
Ti       1.52460324       1.31756591      20.18790427       0.00440898      -0.00199122      -0.00187161
Ti       4.06616655       6.18020899      20.18160827       0.00397319      -0.00227915      -0.00299858
Ti       4.88334399       8.90776371      20.86278632       0.00237208      -0.00234586      -0.00236773
Ti       2.33571735       4.03723981      20.86060912       0.00331320      -0.00354818      -0.00077002
Ti       3.88919016       1.90524854      21.69706230      -0.00599521      -0.00012587      -0.00373822
Ti       1.33708347       6.77208856      21.69148338      -0.00497278      -0.00118305      -0.00243117
