64
Lattice="5.872 0.0 0.0 0.0 6.890708 0.0 0.0 0.0 27.394398" Properties=species:S:1:pos:R:3:forces:R:3 job_name=Segregation-1sol-T1g-V-V-39-d-3.19 top_level=Segregation-1sol solute=V energy=-496.08545729 stress_kbar_3x3="_JSON [[-11.16053069, 0.00054179, -0.00037758], [0.0005418, -13.62463068, -0.49505627], [-0.00037759, -0.49505625, -21.11520608]]" pbc="T T T"
Ti       4.40401087       5.15898813       0.08319875      -0.00026331      -0.00707661       0.00052522
Ti       1.46801723       5.15861773       0.08148785       0.00013918      -0.00717102       0.00080778
Ti       0.00012346       3.07051111       1.27175797       0.00019093      -0.00328857       0.00156839
Ti       2.93590286       3.07050398       1.27180030      -0.00012760      -0.00319055       0.00114451
Ti       0.00053806       6.75851223       1.89084911       0.00005927      -0.00061343       0.00657834
Ti       2.93552829       6.75853004       1.89084642      -0.00003391      -0.00075757       0.00648850
Ti       4.40400920       1.83587494       3.29197679      -0.00005504       0.00391021       0.00439363
Ti       1.46800231       1.83631352       3.29230463       0.00003950       0.00496200       0.00276810
Ti       1.46805365       4.67137754       3.31784436      -0.00002090      -0.00155810      -0.00097415
Ti       4.40403784       4.67165635       3.31759093      -0.00000051      -0.00136596      -0.00220586
Ti       0.00035032       6.76878508       4.72223897      -0.00028468      -0.00271271      -0.00574863
Ti       2.93566801       6.76877990       4.72224470       0.00030755      -0.00268236      -0.00583950
Ti       2.93614720       3.03047901       5.34003123      -0.00007794       0.00087264      -0.00220298
Ti      -0.00012332       3.03047847       5.34003579       0.00007232       0.00094397      -0.00227209
Ti       4.40400215       5.13154293       6.51209095      -0.00002011      -0.00205566       0.00338254
Ti       1.46799670       5.13097008       6.51355550       0.00003867      -0.00080371       0.00232577
Ti       4.40400777       1.05597434       6.94320336       0.00008102       0.00287564       0.00190740
Ti       1.46801731       1.05509375       6.94213436      -0.00006497       0.00313292       0.00009213
Ti       2.93677046       3.21688390       8.15709153      -0.00057752      -0.00113318       0.00236119
Ti      -0.00078299       3.21690597       8.15709482       0.00059636      -0.00133883       0.00241884
Ti       2.93652346       6.14901149       8.76117617      -0.00046372       0.00260324       0.00144297
Ti       5.87149463       6.14903525       8.76122015       0.00044203       0.00266956       0.00127755
Ti       4.40401204       1.42203794       9.92106171       0.00002272       0.00298194      -0.00098177
Ti       1.46798798       1.42061339       9.91794562       0.00016432       0.00080417      -0.00033630
Ti       4.40402138       4.23667046      10.43412420      -0.00010795      -0.00147776      -0.00103673
Ti       1.46798063       4.24101878      10.43104143       0.00012259       0.00103541      -0.00034522
Ti       2.93752904       6.40418048      11.60104812       0.00116236      -0.00185174      -0.00105672
Ti       5.87050566       6.40422751      11.60105360      -0.00118303      -0.00191156      -0.00090873
Ti       2.93402364       2.43333662      12.19402135       0.00032653       0.00269551      -0.00107822
Ti       0.00201339       2.43332648      12.19408588      -0.00032200       0.00256740      -0.00104287
Ti       1.46801685       4.60484901      13.38727543       0.00007199       0.00010395      -0.00077933
Ti       4.40407278       4.58646175      13.41639928      -0.00008802       0.00001264       0.00156390
Ti       4.40405844       0.53049105      13.83315861      -0.00026765       0.00143465       0.00341469
Ti       1.46796514       0.53106312      13.85806220       0.00013180      -0.00083795       0.00069169
Ti       0.05717691       2.64804130      15.04139029      -0.00152977       0.00027046       0.00215249
Ti       2.87889429       2.64800933      15.04131877       0.00135588       0.00017061       0.00209801
Ti       0.02815799       5.73411903      15.60021706      -0.00003071       0.00135462       0.00221565
Ti       2.90794333       5.73415566      15.60018417      -0.00006484       0.00132388       0.00219604
Ti       4.40399032       3.78067604      17.00157235       0.00003367      -0.00010420      -0.00280345
V        1.46804057       3.89519446      17.00278277      -0.00006071       0.00351367      -0.00250424
Ti       4.40405584       0.91242304      17.00558934      -0.00011160       0.00032190      -0.00170160
Ti       1.46802910       0.99792576      17.00625607       0.00020516       0.00011231      -0.00187354
Ti       0.02723175       5.73703496      18.40743442      -0.00026134       0.00085724      -0.00472035
Ti       2.90881245       5.73706124      18.40742571       0.00012280       0.00075497      -0.00461025
Ti       2.87951116       2.65909970      18.96679945       0.00084152       0.00080660       0.00051017
Ti       0.05649058       2.65910078      18.96675034      -0.00097042       0.00106985       0.00015508
Ti       4.40401147       0.54300827      20.16977991      -0.00007507       0.00148011      -0.00040633
Ti       1.46793718       0.54240360      20.14577953       0.00037769       0.00235345       0.00083163
Ti       1.46797329       4.62019961      20.62280968       0.00015387      -0.00262208       0.00215723
Ti       4.40402851       4.60157006      20.59457920      -0.00015151       0.00021586       0.00048100
Ti       2.93403791       2.45148092      21.81238034      -0.00085641       0.00158427       0.00098949
Ti       0.00192459       2.45146237      21.81227696       0.00085039       0.00171331       0.00154583
Ti       2.93768823       6.42708781      22.40644848       0.00144335      -0.00164165       0.00052822
Ti       5.87028339       6.42714348      22.40645607      -0.00137999      -0.00193008       0.00063309
Ti       4.40399563       4.26245486      23.57511702       0.00023572      -0.00074279      -0.00006374
Ti       1.46797240       4.26669050      23.57798502      -0.00013852      -0.00000118       0.00066123
Ti       4.40400134       1.45156314      24.08645175       0.00012930       0.00149071       0.00062143
Ti       1.46796421       1.45012051      24.08889365      -0.00008952       0.00084778      -0.00114215
Ti       2.93644411       6.18442302      25.24357166      -0.00053484      -0.00174347      -0.00234417
Ti       5.87152717       6.18439946      25.24358612       0.00051034      -0.00154528      -0.00247392
Ti       5.87120154       3.23949467      25.85067783       0.00044047      -0.00282821      -0.00302122
Ti       2.93681419       3.23946282      25.85065274      -0.00047432      -0.00265784      -0.00250278
Ti       1.46800679       1.08291501      27.07943329       0.00005427       0.00226253      -0.00276841
Ti       4.40401721       1.08402566      27.07861320      -0.00003520       0.00153410      -0.00318450
