64
Lattice="5.088765 0.0 0.0 0.0 9.739025 0.0 0.0 0.0 22.303587" Properties=species:S:1:pos:R:3:forces:R:3 job_name=Segregation-1sol-T2-Al-Al-40-d-2.77 top_level=Segregation-1sol solute=Al energy=-492.12475883 stress_kbar_3x3="_JSON [[-1.61880846, -0.42835828, 0.88818926], [-0.42835831, -17.47914522, -0.83587213], [0.88818927, -0.83587212, -18.08992704]]" pbc="T T T"
Ti       2.55388153       9.25271279      -0.00404967       0.00160287       0.00315995      -0.00561094
Ti       0.00167413       4.38292335      -0.01325742      -0.00677749       0.00812661       0.00033719
Ti       1.27859859       1.87934278       0.61504826      -0.00356697       0.00013605       0.01006466
Ti       3.81663003       6.74657887       0.61155626      -0.00686505       0.00467366      -0.00173460
Ti       2.71501273       4.07360290       1.39334421       0.01005868      -0.00160565      -0.00267991
Ti       0.16803180       8.94217220       1.38504721       0.00468837       0.00439661      -0.00005757
Ti       1.03573570       6.21812401       2.11532718       0.00047161      -0.00174920       0.00008578
Ti       3.58804461       1.35207349       2.12232526       0.00030910      -0.00260844      -0.00046927
Ti       0.22439652       3.50262358       2.76567149       0.00053962      -0.00401358      -0.00134417
Ti       2.76668596       8.36915682       2.76612991       0.00546437      -0.00105916      -0.00839644
Ti       1.10604389       0.87511123       3.49858159       0.00722361       0.00141354       0.00270687
Ti       3.64715514       5.74418275       3.50664465       0.00898667       0.00158259       0.00533052
Ti       2.76089288       3.10405157       4.19867361      -0.00014952       0.00256813      -0.00308653
Ti       0.21024445       7.97621514       4.18454991       0.00147159       0.00130823      -0.00612539
Ti       3.61560837       0.44020197       4.86466541       0.00368435       0.00205345      -0.00614806
Ti       1.07077561       5.30641533       4.85176065       0.00076793      -0.00139056      -0.00516544
Ti       2.75139978       7.52989384       5.58921491       0.00160709       0.00280521       0.00137714
Ti       0.21523748       2.65335136       5.58777916      -0.00357454       0.00253373      -0.00051933
Ti       3.61024737       4.86759865       6.29986938       0.00084075       0.00417890      -0.00054375
Ti       1.06276485      -0.00113920       6.28530284       0.00483276       0.00495557       0.00166320
Ti       0.20694431       7.07216129       6.96048140      -0.00167764      -0.00155503      -0.00390958
Ti       2.76000315       2.19485913       6.99289596      -0.00117464      -0.00248131       0.01021960
Ti       1.10454268       4.43595026       7.65078417      -0.00085618      -0.00165862      -0.00408990
Ti       3.65404791       9.31119967       7.68082317      -0.00224326       0.00310121      -0.00567702
Ti       0.25021804       1.79084950       8.39622600      -0.00261668       0.00018860      -0.00666598
Ti       2.76048515       6.67305715       8.39871429      -0.00099471       0.00530372      -0.00050708
Ti       1.06763722       8.84479553       9.01704915       0.00646427       0.00835991       0.00084762
Ti       3.60350133       3.95176733       9.04141415      -0.00761484      -0.00258896       0.00552329
Ti       2.74609074       1.26595381       9.87653035      -0.00742477       0.00172314       0.00178442
Ti       0.15268063       6.11998192       9.74456186       0.00120800       0.00231594      -0.01100048
Ti       3.84057294       8.32155703      10.54112467      -0.00786651       0.00512902      -0.00116354
Ti       1.24312169       3.49093796      10.47592642      -0.00699242      -0.00359380       0.00577365
Ti       0.06821903       0.94220275      11.16514206       0.00563176      -0.00444564       0.01064606
Ti       2.53509167       5.80146520      11.15276970       0.00178034      -0.01107505      -0.00048744
Ti       3.78826065       3.41589165      11.82180207      -0.00127830      -0.00540273      -0.00912544
Ti       1.28822929       8.29320097      11.73467835      -0.00921783       0.00006598      -0.00533100
Ti       2.34979089       1.20936580      12.64481206       0.00789506       0.00133257      -0.01306487
Ti       4.91538731       6.08489380      12.53834831       0.00218735      -0.00456450      -0.00477347
Ti       1.38841169       4.00102902      13.25696529      -0.00663119      -0.00383627       0.00155255
Ti       4.10534430       8.82690693      13.25338821       0.00767867      -0.00454793      -0.00228111
Al       4.85257593       1.76618174      13.93248296       0.00082226      -0.00774207      -0.00917107
Ti       2.33319752       6.71558716      13.89856549      -0.00715675       0.00353463       0.00538094
Ti       1.37844838       9.31249407      14.72831160       0.00407319       0.00564256       0.00132511
Ti       3.92017107       4.38966760      14.57841317       0.00853481       0.00875912       0.01100836
Ti       4.86119910       7.03885878      15.31042216       0.00430032      -0.00915914       0.00426930
Ti       2.27772407       2.20388750      15.31342530      -0.00034635       0.00024798       0.01159258
Ti       1.49716410       4.89377502      15.99306605      -0.00196573       0.00667233       0.00814173
Ti       3.96961148      -0.01435281      15.97392087      -0.00927962      -0.00561423       0.00079509
Ti       2.34228098       7.51261501      16.74083546      -0.00238878      -0.00449095      -0.00649122
Ti       4.89556582       2.62772270      16.69268514       0.00581071       0.00864732       0.00479668
Ti       4.03099793       5.29589862      17.43098689      -0.00670817      -0.00190577      -0.00296334
Ti       1.49588650       0.42785070      17.47289251       0.01273861      -0.00010582       0.00568271
Ti       4.88511238       7.97621520      18.08166821      -0.00106662      -0.01056411      -0.00209283
Ti       2.34024327       3.09846238      18.09289303       0.00262505      -0.00725470      -0.00367588
Ti       1.44039324       5.73132330      18.80305224      -0.00112971      -0.00115209      -0.00106562
Ti       3.99262112       0.87311018      18.80232065      -0.00476900      -0.00236672      -0.00202921
Ti       2.33176338       8.36019461      19.54362361      -0.00978176       0.00154810      -0.00014474
Ti       4.87040386       3.50096069      19.52424177      -0.00277436       0.00606027       0.00498891
Ti       1.51648815       1.35343197      20.18852228      -0.00380595       0.00349888       0.00552443
Ti       4.05831448       6.22169982      20.16431401      -0.00126441      -0.00407040      -0.00079231
Ti       4.94106653       8.94716231      20.89587313      -0.00017078      -0.00453018      -0.00103500
Ti       2.39368034       4.07350780      20.90567169       0.00005632      -0.00520013       0.00329645
Ti       3.82847465       1.87656941      21.68349909       0.00353516       0.00425099       0.00729962
Ti       1.27454598       6.74559086      21.68375013       0.00223927       0.00205827       0.00740505
