52
Lattice="4.6568 0.0 0.0 0.0 7.770572 0.0 0.0 0.0 25.044546" Properties=species:S:1:pos:R:3:forces:R:3 job_name=Segregation-1sol-CSL7-Al-Al-25-d-0.00 top_level=Segregation-1sol solute=Al energy=-397.36451921 stress_kbar_3x3="_JSON [[-11.88260434, 0.00399976, -3.17310072], [0.00399975, -30.19077705, -0.00118473], [-3.17310073, -0.00118473, -15.37733115]]" pbc="T T T"
Ti       1.81855030       7.41609714       0.70369870      -0.00327730       0.00154509       0.00267143
Ti       4.63909342       5.62509040       1.36342760       0.00419122       0.00278127       0.00062820
Ti       2.46571587       2.29328263       1.60758086       0.00257099       0.00316360      -0.00052630
Ti       4.57826209       0.65130752       2.06822183       0.00380169      -0.00033332       0.00152769
Ti       2.37583545       5.02639316       2.81791668       0.00349972      -0.00017638       0.00271298
Ti       0.04476909       3.35899929       3.00865208       0.00432382       0.00045286       0.00096890
Ti       2.32889543       0.03064231       3.63059905       0.00458402      -0.00022762      -0.00073616
Ti       0.06056527       6.12991528       4.08550427       0.00446128      -0.00096581       0.00042208
Ti       2.37042513       2.78139183       4.58875162       0.00433135      -0.00086379      -0.00092876
Ti       0.03836350       1.13368515       4.98015442       0.00528615       0.00060070       0.00017179
Ti       2.39180458       5.58726732       5.59753131       0.00326160      -0.00245597      -0.00003183
Ti       0.05200132       3.89393741       5.93925561       0.00402889      -0.00159585       0.00174027
Ti       2.38241291       0.57583690       6.54868935       0.00259751      -0.00078727      -0.00057797
Ti       0.07659432       6.64529735       6.91324072       0.00158335      -0.00091129      -0.00011709
Ti       2.38682291       3.33983486       7.50764685       0.00238037      -0.00129038      -0.00000301
Ti       0.08079214       1.69866431       7.90484009       0.00142153      -0.00058224       0.00211524
Ti       2.41850802       6.08986802       8.42396991       0.00245513      -0.00168149       0.00215915
Ti      -0.00006519       4.42353317       8.90327358      -0.00041609      -0.00112272       0.00086735
Ti       2.44384096       1.11001990       9.43346770      -0.00002439      -0.00098935       0.00251980
Ti       0.14228278       7.19520911       9.69011410      -0.00160189       0.00085346      -0.00149685
Ti       2.23436411       3.79970406      10.44910836       0.00392918       0.00012862       0.00260385
Ti       0.16652209       2.05476993      10.92758279      -0.00338082       0.00006503       0.00112288
Ti       2.51010620       6.66145653      11.12393295       0.00103003      -0.00512588      -0.00099521
Ti       4.12937142       4.72265062      11.85984825      -0.01577155       0.00201082      -0.01144267
Ti       2.70471853       1.54633486      12.52196241       0.00051550      -0.00175484       0.00019145
Al       0.37720570       7.46840376      12.52188907      -0.00043860       0.00789562       0.00052509
Ti       1.27989834       4.72287894      13.18409586       0.01499172       0.00213695       0.01133653
Ti       2.89967389       6.66184680      13.91948432       0.00146346      -0.00438952      -0.00010710
Ti       0.58555726       2.05500035      14.11606660       0.00361103       0.00004810      -0.00091348
Ti       3.17476212       3.80008942      14.59490686      -0.00294811      -0.00001678      -0.00221635
Ti       0.61005617       7.19564341      15.35365111       0.00071675       0.00059748       0.00134618
Ti       2.96520710       1.11047337      15.61032041       0.00039654      -0.00085262      -0.00271213
Ti       0.75180956       4.42389324      16.14043091       0.00052861      -0.00111920      -0.00065562
Ti       2.99047710       6.09014646      16.61968538      -0.00226279      -0.00176633      -0.00192199
Ti       0.67102629       1.69894279      17.13882095      -0.00126918      -0.00051235      -0.00189385
Ti       3.02204912       3.34018596      17.53607125      -0.00209064      -0.00077069      -0.00011359
Ti       0.67508791       6.64551535      18.13063592      -0.00151733      -0.00099841       0.00014044
Ti       3.02604249       0.57608866      18.49501268      -0.00262818      -0.00075366       0.00040491
Ti       0.69967619       3.89395506      19.10430090      -0.00384481      -0.00139758      -0.00201789
Ti       3.01672818       5.58744786      19.44627966      -0.00333272      -0.00252013      -0.00010968
Ti       0.71326301       1.13374832      20.06352522      -0.00545705       0.00066160      -0.00058823
Ti       3.03807361       2.78159629      20.45457645      -0.00485287      -0.00071000       0.00107739
Ti       0.69105321       6.13010273      20.95837084      -0.00470547      -0.00095276      -0.00083750
Ti       3.07953649       0.03088685      21.41261563      -0.00471612      -0.00013557       0.00082426
Ti       0.70704061       3.35922535      22.03448727      -0.00478305       0.00051455      -0.00129664
Ti       3.03270297       5.02673528      22.22543736      -0.00337009      -0.00021296      -0.00242861
Ti       0.83125522       0.65121690      22.97494545      -0.00408234      -0.00014908      -0.00146759
Ti       2.94318688       2.29354323      23.43538627      -0.00287155       0.00301863       0.00055916
Ti       0.76995515       5.62483085      23.68015407      -0.00431186       0.00291954      -0.00052876
Ti       3.59121147       7.41624862      24.33967039       0.00266348       0.00144946      -0.00243435
Ti       0.37619328       2.83003459      25.04386580      -0.00012242       0.00188471       0.00005594
Ti       2.70480895       4.59077313      25.04396458      -0.00054771       0.00539375       0.00040622
