52
Lattice="5.088765 0.0 0.0 0.0 5.495746 0.0 0.0 0.0 32.722931" Properties=species:S:1:pos:R:3:forces:R:3 job_name=Segregation-1sol-C1-V-V-32-d-3.83 top_level=Segregation-1sol solute=V energy=-403.55802751 stress_kbar_3x3="_JSON [[-42.55228979, -0.67879962, 2.35728871], [-0.67879962, -24.83602587, 5.58283651], [2.35728874, 5.58283651, -30.35586999]]" pbc="T T T"
Ti       2.60168428       0.08629451      32.67035913       0.00077676       0.00103089       0.00003181
Ti       0.51410942       1.66320593       1.26585121       0.00064971       0.00009964       0.00049887
Ti       0.32918541       4.41690799       1.25838185      -0.00047526       0.00244666       0.00090488
Ti       2.48221953       3.04085691       2.61857221      -0.00004205       0.00195284       0.00194505
Ti       3.43094871       0.29275780       2.62398598      -0.00026617       0.00052332       0.00140881
Ti       0.87691832       0.30724199       3.66761511      -0.00090410       0.00016250      -0.00024529
Ti       5.02282482       3.05414611       3.66011890      -0.00085902       0.00102404       0.00067236
Ti       3.07086561       1.61306173       5.03635502       0.00022677       0.00183947       0.00004507
Ti       2.81116280       4.35335198       5.02972266       0.00037166       0.00062334       0.00078599
Ti       5.07881918       5.42414511       6.32172683       0.00010301       0.00126671       0.00130135
Ti       0.77692430       2.67990052       6.32530991      -0.00051625       0.00176333       0.00069173
Ti       3.36896067       3.28263184       7.56277681      -0.00007769       0.00126749       0.00218269
Ti       2.47073886       0.52806020       7.54638885       0.00019213       0.00228636       0.00191102
Ti       0.75832805       4.08951651       8.81586017      -0.00038086       0.00143569       0.00161994
Ti       5.08260020       1.33421673       8.80630076       0.00059406       0.00222899       0.00229368
Ti       2.51573515       2.12377021      10.08022245      -0.00018100       0.00219512       0.00100902
Ti       3.29078291       4.88827212      10.06543605      -0.00005678       0.00249437       0.00002151
Ti       0.74004414       0.15194296      11.34356510       0.00086005       0.00233195       0.00056772
Ti       5.03312486       2.89195726      11.31016082      -0.00018757       0.00202811      -0.00039007
Ti       3.29687897       0.93618363      12.60159931       0.00075620       0.00301368      -0.00062855
Ti       2.51504915       3.67352796      12.56287059       0.00093982       0.00214682      -0.00116542
Ti       5.04952836       4.42451307      13.84089688       0.00088121       0.00173528      -0.00078533
Ti       0.73417382       1.70410628      13.80132294      -0.00007538       0.00357468      -0.00114539
Ti       2.45808409       5.20517202      15.05219074      -0.00052170       0.00195112      -0.00174787
Ti       3.23008391       2.47164061      15.10470925      -0.00089457       0.00285238      -0.00226111
Ti       0.65200049       3.14031067      16.40179313       0.00077449       0.00191007      -0.00247389
Ti       0.01075953       0.35106625      16.31008251      -0.00040293       0.00150783      -0.00115340
Ti       3.52861314       1.79016308      17.86557262       0.00081761      -0.00229795       0.00014070
Ti       2.61349425       4.49195377      17.79666806      -0.00099410      -0.00002408      -0.00094062
Ti       0.06183711       4.47309350      18.90524903      -0.00143522       0.00037790      -0.00090042
Ti       1.01222425       1.81854285      18.89709358       0.00045524       0.00083917      -0.00048037
Ti       3.04551465       0.34009665      20.16460594      -0.00067948      -0.00061382       0.00085378
V        3.06486608       3.11285969      20.17346791       0.00030649      -0.00281521      -0.00049918
Ti       0.99484279       4.45019625      21.47487928      -0.00092492      -0.00296123      -0.00067444
Ti       0.00695863       1.76990707      21.45940953      -0.00174035      -0.00190773       0.00247909
Ti       2.54547559       1.68617858      22.51584600      -0.00290702      -0.00087054      -0.00113896
Ti       3.52648103       4.37965976      22.51839066      -0.00042763      -0.00377909      -0.00174526
Ti       0.38811679       0.34279744      23.85762971      -0.00009988      -0.00020862      -0.00046566
Ti       0.57281796       3.08438723      23.86977301       0.00008427      -0.00788733      -0.00196188
Ti       3.38548070       1.91799717      25.19534277       0.00010042      -0.00491757       0.00001666
Ti       2.64943968       4.66709017      25.18336749       0.00004023      -0.00364301      -0.00093247
Ti       0.91734072       1.25192938      26.42271154       0.00101667      -0.00078332       0.00135535
Ti       0.01268509       4.00901883      26.42280716       0.00112806      -0.00479601       0.00124054
Ti       2.62286959       3.20307503      27.66578371      -0.00002447      -0.00407012       0.00202306
Ti       3.38214022       0.45004303      27.67208939       0.00089138      -0.00088451       0.00127592
Ti       0.81084794       5.11612674      28.93297463       0.00159989      -0.00146051       0.00032622
Ti       0.09444721       2.37312493      28.92278431      -0.00089468      -0.00249159       0.00025408
Ti       2.61165309       1.54867696      30.18542419       0.00014998      -0.00115198      -0.00124304
Ti       3.37190838       4.29221006      30.19148530       0.00013232      -0.00042441      -0.00168987
Ti       0.89047966       3.48199487      31.43210994       0.00029139       0.00010146      -0.00126912
Ti       5.07764799       0.74085844      31.43228075       0.00100141      -0.00134791      -0.00186109
Ti       3.35004604       2.83241844      32.67721530       0.00082786       0.00032533      -0.00005819
