52
Lattice="4.6568 0.0 0.0 0.0 7.770572 0.0 0.0 0.0 25.044546" Properties=species:S:1:pos:R:3:forces:R:3 job_name=Segregation-1sol-CSL7-V-V-33-d-4.09 top_level=Segregation-1sol solute=V energy=-401.47912991 stress_kbar_3x3="_JSON [[-19.78936528, -0.42141407, 0.11279906], [-0.4214141, -24.2210011, 1.11425809], [0.11279906, 1.11425811, -24.60518782]]" pbc="T T T"
Ti       1.81540458       7.39726729       0.69330293       0.00620992      -0.00362088       0.00163358
Ti       4.63296819       5.59963161       1.35865146      -0.00432876      -0.00639387       0.00020677
Ti       2.45789166       2.27880950       1.60371723       0.00133407       0.00156853       0.00667947
Ti       4.56727159       0.62431037       2.07190980      -0.00012947      -0.00071841       0.01183588
Ti       2.35806201       5.01317725       2.82273507       0.00320801      -0.00315953       0.00226063
Ti       0.02417097       3.33548439       3.00958140       0.00265308      -0.00168250       0.00863223
Ti       2.31113278       0.01402412       3.64599581       0.00122525       0.00000462       0.00638375
Ti       0.03001618       6.10493051       4.09295949       0.00314513       0.00193431       0.00098691
Ti       2.34132339       2.76605771       4.60004484      -0.00029867      -0.00231941       0.00558818
Ti       0.00611555       1.11579106       5.00115102       0.00081090       0.00107742       0.00164218
Ti       2.34687925       5.57031580       5.62263503       0.00505905      -0.00115583       0.00502662
Ti       0.01007396       3.87142792       5.95483937       0.00048097       0.00114265       0.00535344
Ti       2.33819455       0.56503573       6.58884519       0.00416739      -0.00388721      -0.00203067
Ti       0.01776075       6.63824260       6.93046488       0.00326393      -0.00060085      -0.00153411
Ti       2.33616083       3.32023274       7.54319185       0.00016671      -0.00441230       0.00527233
Ti       0.01759890       1.66985275       7.94508030       0.00070175      -0.00436856       0.00008588
Ti       2.35652671       6.09916240       8.46276124      -0.00005182      -0.00212981       0.00040287
Ti       4.63832470       4.41890874       8.89492240       0.00014170      -0.00176159       0.00014602
Ti       2.35730779       1.09564135       9.52928306       0.00016668      -0.00871961      -0.00052050
Ti       0.02852981       7.19612784       9.73262280      -0.00367610      -0.00276056      -0.00272551
Ti       2.22852833       3.80595495      10.47428683       0.00551636      -0.00435995      -0.00335468
Ti       0.12802415       2.15117936      10.95021407      -0.00397079      -0.00993343      -0.00490305
Ti       2.30166013       6.60404030      11.19708786      -0.00171999      -0.00861541       0.00458680
Ti       4.15920653       4.81818005      11.82538619      -0.00666882      -0.00493432      -0.00798113
Ti       2.69477731       1.59002893      12.55434771       0.00004421      -0.01259367       0.00691414
Ti       0.37225510       7.62377072      12.59010201      -0.00426515      -0.00848227      -0.00512045
Ti       1.25889474       4.80731054      13.23277324       0.00852780      -0.00344241       0.00629305
Ti       3.13982985       6.51458055      14.00255922      -0.00105859       0.00073656      -0.00265284
Ti       0.62588275       2.17113876      14.15515771      -0.00163890      -0.00771952       0.00348976
Ti       3.16438887       3.75980737      14.55246269      -0.00102783      -0.01753360       0.00321936
Ti       0.73688209       7.20579791      15.42443307       0.00474471       0.00600355      -0.00488706
Ti       3.04429965       1.08359666      15.52223242      -0.00121472       0.00908380      -0.00573637
Ti       0.80405674       4.53217551      16.12720136       0.00438067      -0.00449586      -0.00549498
V        3.06450514       6.13138125      16.65546066       0.00292257      -0.00596802      -0.01564704
Ti       0.73929768       1.75533688      17.10253306      -0.00007748       0.00209128      -0.00553792
Ti       3.09108327       3.37889020      17.46165556       0.00070770       0.00077159      -0.00410285
Ti       0.71301371       6.64874794      18.10519042       0.00188038       0.00142616       0.00481124
Ti       3.05602592       0.57069827      18.40991354      -0.00131967       0.00582914      -0.00562645
Ti       0.74451869       3.88849531      19.07214932      -0.00361018       0.00594529      -0.00052297
Ti       3.05048620       5.57988330      19.38926663      -0.00665034       0.00998584       0.00348176
Ti       0.73635898       1.12017200      20.02572175       0.00030385       0.00578147      -0.00516092
Ti       3.06296936       2.77123056      20.39198535       0.00147699       0.01397488       0.00409499
Ti       0.71204105       6.11468017      20.93922313      -0.00033025       0.00657818      -0.00738066
Ti       3.09328643       0.01682546      21.35821874      -0.00207824       0.01468088      -0.00613423
Ti       0.72356391       3.33930368      21.99815368       0.00161442       0.00529575      -0.00444280
Ti       3.04497377       5.00907251      22.18822071       0.00054425       0.01301151      -0.00575180
Ti       0.84241076       0.61904918      22.93563153      -0.00239117       0.00135039      -0.00133147
Ti       2.94865155       2.27566465      23.39961689      -0.00411416       0.01168855      -0.00188773
Ti       0.77351058       5.59237115      23.66408841      -0.00353742      -0.00159870      -0.00463105
Ti       3.59082409       7.39162330      24.31215229      -0.00898746       0.00567443       0.01314249
Ti       0.37617794       2.79632511      25.02633748      -0.00222394      -0.00154707       0.00576843
Ti       2.70679150       4.56889838      25.02916363      -0.00002853       0.01327835      -0.00283956
