52
Lattice="4.6568 0.0 0.0 0.0 7.770572 0.0 0.0 0.0 25.044546" Properties=species:S:1:pos:R:3:forces:R:3 job_name=Segregation-1sol-CSL7-Al-Al-30-d-2.82 top_level=Segregation-1sol solute=Al energy=-397.64019155 stress_kbar_3x3="_JSON [[-16.08022889, 1.21257229, 1.63313665], [1.2125723, -24.92765386, 0.06462902], [1.6331366, 0.06462902, -19.92128004]]" pbc="T T T"
Ti       1.81604324       7.38715005       0.71078913      -0.00655553       0.01373457       0.00867718
Ti       4.62539058       5.60365608       1.36381121       0.00387373       0.00692084       0.00573421
Ti       2.45880834       2.27203300       1.60467240       0.00252285       0.01212585      -0.00384695
Ti       4.56612469       0.62718742       2.08214616      -0.00186853       0.00227433      -0.00220155
Ti       2.35811600       5.00700028       2.82290351      -0.00181987       0.00208805       0.00257109
Ti       0.02264177       3.33855939       3.00828266      -0.00153736       0.00028282      -0.00309089
Ti       2.30979191       0.01070666       3.64941372      -0.00245323       0.00258416       0.00124329
Ti       0.02774384       6.10670006       4.08960940      -0.00279505       0.00218319      -0.00333335
Ti       2.33921020       2.76515121       4.59430997      -0.00065643      -0.00036928       0.00228034
Ti       4.65569579       1.11981906       4.99429939      -0.00050889       0.00235317       0.00455041
Ti       2.34220517       5.57030239       5.62010642       0.00012397       0.00195193       0.00017249
Ti       0.00349040       3.87532360       5.94265485      -0.00159999       0.00155109      -0.00142440
Ti       2.33145242       0.56651274       6.57670120      -0.00095890       0.00195963       0.00573059
Ti       0.00660952       6.64733539       6.91864645      -0.00301625      -0.00144713       0.00079759
Ti       2.32564704       3.32335062       7.52628944      -0.00489485       0.00343336      -0.00257841
Ti       0.01052700       1.67793891       7.92337396      -0.00488548       0.00275886       0.00348018
Ti       2.33649440       6.11095639       8.44702304      -0.00699954      -0.00758530       0.00781355
Ti       4.62786515       4.43107152       8.86692890      -0.00872283      -0.00056905       0.00597976
Ti       2.33168723       1.11108193       9.50496444      -0.00402621      -0.00395762       0.00236546
Ti       0.00813613       7.21360318       9.71085528      -0.01118240      -0.00447063      -0.00526060
Ti       2.18460515       3.81948794      10.46808229       0.01522877       0.00537855       0.00380193
Ti       0.12719578       2.16745533      10.91803611      -0.01237676      -0.00415540       0.00564193
Ti       2.28732681       6.59530128      11.16605928       0.00819766      -0.00689691      -0.00378991
Ti       4.19667581       4.85293209      11.76312719      -0.00347359      -0.00934118      -0.00790175
Ti       2.71828930       1.62014949      12.50213863       0.00112909      -0.00174705       0.00145677
Ti       0.46689178       7.64557017      12.57067788      -0.01363358       0.00752396       0.00010630
Ti       1.15742084       4.83704966      13.33567580       0.01013326       0.00003972       0.01419518
Ti       3.08330194       6.56481176      13.87485875      -0.00522777      -0.01780569       0.00585480
Ti       0.65861273       2.11702910      14.16669504       0.00231102      -0.00190779      -0.01068071
Ti       3.18352463       3.74214623      14.54838349       0.00239777      -0.00257208      -0.00257182
Al       0.73112956       7.15776874      15.31718204       0.01226128       0.00193356      -0.00532981
Ti       3.05114600       1.01350213      15.51573546       0.00464870      -0.00469858       0.00857267
Ti       0.79840238       4.42392497      16.16058316       0.01031136      -0.00852398      -0.01049737
Ti       3.05258625       6.15251274      16.59616257       0.00045646      -0.00536356      -0.00416964
Ti       0.75745056       1.64294136      17.13773492      -0.00222762      -0.00373828       0.00538611
Ti       3.10012630       3.31142881      17.47479999       0.00280715      -0.00852759       0.00128416
Ti       0.73526322       6.69570160      18.10622419       0.00520052      -0.01434753      -0.00987105
Ti       3.07122584       0.58069483      18.53570234       0.00602487      -0.01440390      -0.00366208
Ti       0.75989363       3.88028505      19.07545856      -0.00545929      -0.00018315      -0.00788069
Ti       3.07481857       5.57900145      19.38877837       0.00168577      -0.00214729       0.00656071
Ti       0.74854816       1.14182723      20.08393820       0.00120139      -0.00201299      -0.00733419
Ti       3.06612332       2.78746447      20.44764437       0.00211635      -0.00241237      -0.00274225
Ti       0.73120443       6.12164549      20.92456195      -0.00122455       0.00527682       0.00116971
Ti       3.10964186       0.02196442      21.42289537       0.00023629      -0.00333037      -0.00092121
Ti       0.72101153       3.35261980      22.02850385       0.00398142       0.01041684      -0.00401051
Ti       3.04951016       5.01950069      22.19926210       0.00623600       0.00678841       0.00273397
Ti       0.84809993       0.63405639      22.98210183      -0.00295243       0.00179231      -0.01111372
Ti       2.95548528       2.28543045      23.41938532       0.00041695       0.01511396      -0.00209489
Ti       0.77663903       5.61401906      23.66493950      -0.00389236       0.00377362       0.00580289
Ti       3.59176506       7.40389283      24.34481840       0.00714150       0.00954928      -0.01412267
Ti       0.37401613       2.80980548       0.00105154       0.00475827       0.00630040       0.00239448
Ti       2.70607813       4.57328175      25.03409629      -0.00045312       0.00242541       0.01407270
