64
Lattice="5.872 0.0 0.0 0.0 6.890708 0.0 0.0 0.0 27.394398" Properties=species:S:1:pos:R:3:forces:R:3 job_name=Segregation-1sol-T1g-Al-Al-35-d-1.29 top_level=Segregation-1sol solute=Al energy=-492.00136543 stress_kbar_3x3="_JSON [[-9.58028602, 9.56e-06, -0.00022789], [9.56e-06, -14.42108427, 2.01551206], [-0.00022791, 2.01551202, -15.39815474]]" pbc="T T T"
Ti       4.40250333       5.21550727      27.39047999      -0.00015754      -0.00307870       0.00070411
Ti       1.46947993       5.21546671      27.39048171       0.00015759      -0.00306395       0.00070619
Ti       5.87193732       3.19058652       1.28509044       0.00003039       0.00590920       0.00021524
Ti       2.93603624       3.19010881       1.28704607      -0.00005571       0.00514874       0.00198062
Ti       0.00003957       6.63236994       1.90671930      -0.00004195       0.00113878       0.00216997
Ti       2.93595031       6.63461562       1.90460654       0.00002727       0.00030861       0.00104394
Ti       4.40792944       1.76812483       3.19437734       0.00094204      -0.00490387      -0.00046724
Ti       1.46402003       1.76817397       3.19437548      -0.00096262      -0.00488600      -0.00044864
Ti       1.46669003       4.59937731       3.40961124      -0.00014732       0.00143542       0.00110923
Ti       4.40528420       4.59938512       3.40962022       0.00018327       0.00139777       0.00105951
Ti       5.87197423       6.72545703       4.72433644      -0.00000013      -0.00047204      -0.00399010
Ti       2.93596650       6.72315923       4.72018299      -0.00000335       0.00028303      -0.00450888
Ti       2.93597803       2.87574089       5.32171472      -0.00001611      -0.00379870       0.00122983
Ti       5.87195111       2.87350845       5.33580426      -0.00000399      -0.00368065       0.00055820
Ti       4.40083936       5.00122161       6.48041134      -0.00025718      -0.00138899      -0.00052959
Ti       1.47108681       5.00122369       6.48043015       0.00037228      -0.00141138      -0.00061271
Ti       4.40336384       0.92972359       6.96206832      -0.00054270      -0.00057663      -0.00090236
Ti       1.46856255       0.92973214       6.96205922       0.00067356      -0.00061534      -0.00089230
Ti       2.93600125       3.09273929       8.14082009      -0.00000923      -0.00235066      -0.00092456
Ti       5.87198994       3.08235810       8.16276773      -0.00000885      -0.00073301       0.00051599
Ti       2.93600148       6.00986568       8.74950632      -0.00003849      -0.00474308      -0.00153866
Ti       5.87197257       6.01413447       8.72701279       0.00001007      -0.00397966      -0.00066303
Ti       4.38723858       1.26417770       9.91753740       0.00074841      -0.00253606       0.00328140
Ti       1.48481515       1.26418002       9.91754341      -0.00074471      -0.00257088       0.00332003
Ti       4.37436708       4.10441912      10.39627721      -0.00034612      -0.00421356      -0.00137312
Ti       1.49763698       4.10442276      10.39628028       0.00039671      -0.00418169      -0.00137849
Ti       2.93606065       6.26510558      11.60678281      -0.00011837      -0.00006959      -0.00059564
Ti       0.00005479       6.20696819      11.56324008       0.00002905      -0.00281065      -0.00236361
Ti       2.93606507       2.35963255      12.17810360       0.00001466      -0.00547358      -0.00470027
Ti       0.00002000       2.36506400      12.08509883       0.00001013      -0.00212301      -0.00682430
Ti       1.45147061       4.47529983      13.46302541      -0.00131940       0.00119346      -0.00299360
Ti       4.42062948       4.47525840      13.46305197       0.00124225       0.00103138      -0.00297310
Ti       4.42863278       0.46559884      13.68625539      -0.00180755      -0.00315847      -0.00726354
Ti       1.44344451       0.46557105      13.68619882       0.00175191      -0.00328808      -0.00728552
Ti      -0.00009135       2.48344557      14.92733080       0.00000471       0.00415799       0.00605974
Al       2.93596995       2.48812621      14.98981554       0.00051470      -0.00529598       0.00098259
Ti       0.00004892       5.91147781      15.60721437      -0.00005189      -0.00710978       0.00753107
Ti       2.93606341       5.90808483      15.58899492      -0.00005301      -0.00465387       0.00606620
Ti       4.37382295       3.88244174      16.89480650       0.00052466       0.00546824       0.00241867
Ti       1.49826491       3.88250771      16.89488854      -0.00065122       0.00554823       0.00258549
Ti       4.40113552       1.09569488      17.11206746       0.00011784      -0.00288175       0.00328203
Ti       1.47100888       1.09563152      17.11212462      -0.00026756      -0.00305517       0.00340361
Ti       0.00006184       5.84515287      18.40886050       0.00005946      -0.00049716      -0.00476641
Ti       2.93606503       5.84489972      18.40614290      -0.00010165       0.00081543      -0.00405822
Ti       2.93604157       2.84500366      19.06813896      -0.00002520       0.00359150       0.00189533
Ti       0.00002638       2.83349364      19.02785282       0.00003195       0.00314991       0.00289349
Ti       4.40892158       0.67323496      20.17062392      -0.00092348       0.00288171       0.00351748
Ti       1.46312162       0.67322585      20.17063581       0.00092976       0.00277370       0.00337851
Ti       1.46832326       4.76296593      20.66394196       0.00049461       0.00101913       0.00432185
Ti       4.40374088       4.76296564      20.66393566      -0.00058286       0.00099679       0.00447175
Ti       2.93600764       2.58606559      21.85456467       0.00005159       0.00388135       0.00065176
Ti       0.00002099       2.58481593      21.83232306      -0.00005982       0.00333976      -0.00038211
Ti       2.93599865       6.55393159      22.44161649       0.00003832       0.00150541      -0.00220049
Ti       0.00001570       6.55615209      22.44014980       0.00000176       0.00298257      -0.00260659
Ti       4.40487892       4.38427967      23.63062950       0.00010388       0.00497545      -0.00439530
Ti       1.46713047       4.38428179      23.63061284      -0.00010353       0.00499947      -0.00431320
Ti       4.40603764       1.57094481      24.10046915      -0.00013615       0.00402453      -0.00412201
Ti       1.46596949       1.57094336      24.10047469       0.00014750       0.00397089      -0.00410925
Ti       2.93600123       6.32747544      25.26083625      -0.00004974       0.00305334      -0.00368129
Ti       0.00000514       6.32728832      25.26199655       0.00003071       0.00113973      -0.00262710
Ti       0.00000060       3.28352489      25.86760821      -0.00002438       0.00301207       0.00576688
Ti       2.93601723       3.28194218      25.86791558       0.00000994       0.00223787       0.00538684
Ti       1.46803997       1.15378761      27.17878270       0.00039793       0.00312120       0.00399020
Ti       4.40400315       1.15378527      27.17878854      -0.00043706       0.00310927       0.00399348
