100
Lattice="4.4265 -2.555641 0.0 3.767997 6.526363 -0.031456 0.0 0.0 45.781652" Properties=species:S:1:pos:R:3:forces:R:3 job_name=Segregation-1sol-CSL13-Al-Al-64-d-6.97 top_level=Segregation-1sol solute=Al energy=-771.58352059 stress_kbar_3x3="_JSON [[-37.11422668, -2.59648224, 1.82857596], [-2.59648227, -37.22743506, 1.14208128], [1.82857599, 1.14208127, -17.76486718]]" pbc="T T T"
Ti       2.48732375      -0.89277497       0.02030758      -0.00176254      -0.00446099       0.00036474
Ti       5.77927132       1.55817144       0.00508896      -0.00034573      -0.00545981       0.00057131
Ti       4.99935622      -0.80240533       1.38441782      -0.00234636      -0.00144094      -0.00206412
Ti       4.59853943       3.78068863       1.36917401       0.00250505       0.00056505      -0.00322506
Ti       7.10870141       3.86543295       2.62326233      -0.00249871      -0.00378189      -0.00095174
Ti       3.81535298       1.41608137       2.64039713      -0.00265396      -0.00309241      -0.00072105
Ti       1.66930687      -0.43848191       2.87850750       0.00158512      -0.00393720      -0.00258523
Ti       2.14985853       3.63702204       2.86317478      -0.00146777      -0.00183527       0.00022168
Ti       4.73676030       3.65506734       4.16413798       0.00020882      -0.00151460       0.00023523
Ti       4.81683724      -0.74226602       4.18009684       0.00292809      -0.00228746       0.00017521
Ti       3.44722500       5.87285874       5.24813209      -0.00323010      -0.00484920      -0.00020245
Ti       2.95495975       1.80602703       5.26413978      -0.00097551      -0.00464256      -0.00134364
Ti       2.40955677      -0.95207813       5.75640867      -0.00036588      -0.00243773       0.00241355
Ti       5.75782209       1.46576459       5.74075277      -0.00187980      -0.00355674       0.00200856
Ti       4.27769182       3.76280644       6.95044690      -0.00044647       0.00008440       0.00259901
Ti       5.13854852      -1.08471855       6.96624991       0.00061443      -0.00094798       0.00239475
Ti       6.92420799       3.59333501       7.84578552       0.00233810      -0.00202440       0.00330294
Ti       3.66825137       1.12271978       7.86137178      -0.00198862       0.00117295       0.00283456
Ti       6.37514978       0.88591394       8.60654334       0.00075594      -0.00057437      -0.00106747
Ti       1.59798813      -0.70706861       8.62223274      -0.00088800       0.00004735      -0.00051079
Ti       4.78833792       3.17960665       9.67857485      -0.00134525      -0.00276589       0.00224199
Ti       4.37721669      -0.93443940       9.69477919      -0.00149066      -0.00145592       0.00043866
Ti       3.17347518       5.40848968      10.47514793       0.00108168      -0.00014739      -0.00070099
Ti       2.68886966       1.33756148      10.49025969      -0.00018841      -0.00002854      -0.00051015
Ti       5.89507986       5.19446156      11.42895016      -0.00047969       0.00180797       0.00089877
Ti       5.56983318       1.03274172      11.44396396       0.00128547       0.00168802       0.00282108
Ti       0.58673435       0.91149793      12.36877816      -0.00042562      -0.00035195       0.00210654
Ti       3.85523263       3.37533949      12.35274785      -0.00178063      -0.00130647       0.00353826
Ti       3.30255608       0.64915607      13.17906907       0.00134329       0.00051672      -0.00004258
Ti       6.69691861       3.04022528      13.16358805      -0.00112072       0.00069385      -0.00168616
Ti       5.08744391       5.35675214      14.26913686       0.00151438      -0.00017292       0.00436319
Ti       6.11122105       0.41571219      14.28496565       0.00269045       0.00049698       0.00449056
Ti       4.53882690       2.63757867      14.96846356       0.00214671       0.00239038       0.00389843
Ti       4.03016368      -1.42227716      14.98479160       0.00145553       0.00133330       0.00158662
Ti       7.16447598       2.50516501      15.90449646      -0.00658938       0.00454884       0.00390993
Ti       2.60399564       0.78553437      15.92095335      -0.00137222       0.00441636       0.00178472
Ti       5.73758407       4.79560132      17.14409939      -0.00127582       0.00011243       0.00817018
Ti       5.29601163       0.69569874      17.15956961       0.00001954       0.00200737       0.00016075
Ti       3.60910905       2.94066952      17.56819296       0.00242881       0.00188318      -0.00172325
Ti       0.32936299       0.48332939      17.58586950       0.00273167       0.00486368       0.00196042
Ti       2.87599668       0.50751814      18.71711051      -0.00294842      -0.00412868       0.00019014
Ti       6.78091426       2.60681231      18.70071136       0.00635913       0.00619372       0.00214804
Ti       4.91483080       5.20415369      20.01517364      -0.00022331       0.00632617       0.00681167
Ti       1.62887029       2.74542207      20.03412340       0.00012217       0.00257931      -0.00144488
Ti       4.38180143       2.41787300      20.20748482      -0.00074375       0.00017756       0.00185420
Ti       3.90802541      -1.66298900      20.22177126      -0.00279335      -0.00125678       0.00025675
Ti       6.88321561       2.51290623      21.49490257       0.01051679       0.00452449       0.00670444
Ti       2.73351218       0.54836909      21.50656898       0.00111306      -0.00758554       0.00433303
Ti       3.56732606       2.86584933      22.89043799      -0.00064059       0.00632398      -0.00044550
Ti       0.26723319       0.41980378      22.90434581      -0.00691290       0.00581812      -0.00582247
Ti       5.70833015       4.72344252      22.86353655       0.00209549       0.00166692      -0.00376896
Ti       5.23487065       0.64781870      22.88760866       0.00595355       0.00418703       0.00036327
Ti       2.73459957       0.54153296      24.28136596      -0.00524576       0.00786982       0.00263410
Ti       6.86496526       2.51356421      24.26762449      -0.00234735      -0.00189554      -0.01429790
Ti       3.91113553      -1.67248713      25.58741189      -0.00144548       0.00443666      -0.00489576
Ti       4.36132742       2.42109683      25.57713030      -0.00698891      -0.00656250       0.00521817
Ti       1.61010847       2.76341943      25.73184608       0.00793921       0.00029202      -0.00267408
Ti       4.89628332       5.19537192      25.73206637       0.00734599       0.00704674       0.00019105
Ti       2.84544459       0.48567643      27.05765481       0.00182827       0.00907263      -0.00782673
Ti       6.77369860       2.63104405      27.04625660      -0.01076258      -0.00118523       0.01184906
Ti       4.76199972      -1.96857059      28.23397817      -0.00147186       0.00564019      -0.00323452
Ti       3.49643915       2.91142534      28.15954879      -0.00362962       0.00221094       0.00096660
Ti       5.26618512       0.81247439      28.58609210       0.00535629       0.00084100      -0.00508591
Ti       5.64277712       4.77274409      28.68094287       0.00452556      -0.00217707      -0.00393149
Al       7.26811060       2.50178982      29.78407253      -0.00050680      -0.00247107       0.00335165
Ti       2.66518566       0.81291184      29.84103238       0.00162987       0.00118897      -0.00045037
Ti       4.57267123       2.81487419      30.72883944      -0.00073055       0.00461876      -0.01052940
Ti       3.97614211      -1.41540816      30.79467700       0.00487604       0.00561420      -0.00588863
Ti       1.72676541       2.98881184      31.44607033       0.00008168       0.00088796      -0.00740321
Ti       5.06993911       5.54267809      31.50624504       0.00342479       0.00506206       0.00227973
Ti       3.43911294       0.73905860      32.56164634       0.00115567       0.00229839      -0.00146544
Ti       6.77608863       3.06699198      32.50064017       0.00323396       0.00283889      -0.00078017
Ti       3.91120260       3.41256671      33.39491413       0.00168470      -0.00102890       0.00108216
Ti       0.60969471       1.04835196      33.36776193      -0.00125482      -0.00157010      -0.00450895
Ti       5.97170660       5.23799129      34.28452851       0.00132262      -0.00031439      -0.00773685
Ti       5.66303537       1.13489324      34.33909297      -0.00193576       0.00415787      -0.00374528
Ti       3.28136452       5.53588390      35.17310853       0.00029531       0.00187387      -0.00310363
Ti       2.75318977       1.38389866      35.22790192       0.00052616       0.00478771       0.00049079
Ti       4.80063067       3.29659753      36.05800922       0.00369661      -0.00462797      -0.00154385
Ti       4.46107415      -0.85603380      36.05395745      -0.00021694      -0.00333298      -0.00076649
Ti       2.03658375       3.48880930      37.18449801      -0.00094259      -0.00502086      -0.00147246
Ti       1.67175242      -0.62481486      37.18828979       0.00174476       0.00096379       0.00270239
Ti       7.00384593       3.65392687      37.79993718      -0.00025945      -0.00479693      -0.00054184
Ti       3.74645145       1.23126592      37.82146331      -0.00148313      -0.00061231      -0.00081046
Ti       4.40090661       3.78120801      38.79743197       0.00066069       0.00264755      -0.00238645
Ti       5.11635374      -0.99532613      38.79906555      -0.00126151       0.00331521       0.00246665
Ti       5.78202360       1.49989346      40.06993662       0.00154275      -0.00228920      -0.00582092
Ti       2.46191410      -0.93952642      40.07515278      -0.00079391      -0.00501153       0.00327295
Ti       3.48577683       5.91690997      40.40592929      -0.00515242      -0.00577952      -0.00094047
Ti       2.99800418       1.83200898      40.41541126       0.00086558      -0.00207285       0.00384900
Ti       4.70581372       3.69532807      41.58961661      -0.00128431       0.00607551      -0.00084353
Ti       4.89065894      -0.76247160      41.60373947      -0.00370527      -0.00384369      -0.00123215
Ti       2.16066685       3.63695033      42.93112611      -0.00326801      -0.00276372       0.00316197
Ti       1.68223171      -0.43523469      42.94722649      -0.00093741      -0.00344595       0.00219409
Ti       7.12426734       3.86792748      43.04887173       0.00438462      -0.00768249       0.00222714
Ti       3.82463980       1.42000278      43.06818838      -0.00137465      -0.00838938       0.00011744
Ti       4.63179224       3.76673693      44.37450583       0.00038386       0.00421636       0.00280869
Ti       4.97799939      -0.78981849      44.38934776      -0.00216517      -0.00412941       0.00192199
Ti       3.49403253       5.97250772      45.73444981      -0.00253942      -0.00280524      -0.00179238
Ti       3.02694344       1.89051066      45.74970338       0.00058558      -0.00453079      -0.00041297
