100
Lattice="4.4265 -2.555641 0.0 3.767997 6.526363 -0.031456 0.0 0.0 45.781652" Properties=species:S:1:pos:R:3:forces:R:3 job_name=Segregation-1sol-CSL13-V-V-49-d-0.01 top_level=Segregation-1sol solute=V energy=-775.50406537 stress_kbar_3x3="_JSON [[-38.04663955, -2.33501056, 0.69603869], [-2.33501057, -39.31167056, 1.24321453], [0.6960387, 1.24321453, -18.44707817]]" pbc="T T T"
Ti       2.46275344      -0.91728524       0.01872498      -0.00624611      -0.00311376       0.00035219
Ti       5.75937440       1.53061024       0.00282786       0.00013587      -0.00655992       0.00117644
Ti       4.97339852      -0.82360403       1.38695176       0.00118175      -0.00387119      -0.00324219
Ti       4.58454819       3.75137809       1.37132940      -0.00335782      -0.00173786      -0.00392865
Ti       7.09354456       3.84072484       2.64575443      -0.00537614       0.00083742      -0.00722616
Ti       3.79625964       1.39337977       2.66243189       0.00333985      -0.00210724      -0.00983585
Ti       1.65266393      -0.46185979       2.87654208      -0.00133953      -0.00586883      -0.00955850
Ti       2.13235771       3.61241299       2.86055506      -0.00518667      -0.00486126      -0.00657444
Ti       4.70660564       3.64593257       4.16854234      -0.00438678      -0.00212942      -0.00686871
Ti       4.82143729      -0.77146968       4.18374387      -0.00282227      -0.00053345      -0.00724075
Ti       3.43990754       5.86544576       5.28310472      -0.00370461      -0.00400761      -0.00423230
Ti       2.94824073       1.79712734       5.29925236      -0.00115031      -0.00219924      -0.00393190
Ti       2.40697767      -0.96739409       5.75133777      -0.00457440      -0.00218096      -0.00181834
Ti       5.74212399       1.45752271       5.73579590      -0.00161396      -0.00505906      -0.00196602
Ti       4.29624454       3.75208144       6.96517464      -0.00205389      -0.00214632      -0.00096237
Ti       5.11371090      -1.07011124       6.98232503      -0.00167994      -0.00381721      -0.00563556
Ti       6.92962532       3.60610574       7.88482930       0.00413850      -0.00495992      -0.00178093
Ti       3.67054812       1.13775488       7.90178851      -0.00389509       0.00065329      -0.00283894
Ti       6.37843784       0.89334584       8.61040011       0.00219550      -0.00029453       0.00390170
Ti       1.59618915      -0.69593509       8.62443373      -0.00250711      -0.00167297       0.00306999
Ti       4.78282742       3.19997245       9.70386813       0.00044860      -0.00518236       0.00251829
Ti       4.38973723      -0.92518175       9.72183570       0.00004013      -0.00142353      -0.00254081
Ti       3.18324979       5.42402755      10.50678209      -0.00639967       0.00223739      -0.00429346
Ti       2.68830573       1.35864096      10.52306838      -0.00026885      -0.00364778      -0.00179354
Ti       5.89722507       5.21378663      11.43966191      -0.00050999       0.00165986      -0.00393409
Ti       5.57432998       1.04797830      11.45627162      -0.00305715       0.00201938      -0.00157998
Ti       0.58835974       0.93270935      12.40403007       0.00200042      -0.00512677      -0.00087450
Ti       3.86314713       3.39264957      12.38357496       0.00243705       0.00181470      -0.00151271
Ti       3.31256569       0.66069851      13.20436492       0.00274561       0.00232827      -0.00246886
Ti       6.69079650       3.06225653      13.18811902       0.00392790       0.00361420      -0.00290453
Ti       5.09435209       5.36526171      14.28530401       0.00643099       0.00390583      -0.00739869
Ti       6.11316757       0.43162536      14.29982830       0.00780332       0.00338787      -0.01043318
Ti       4.54044517       2.65024626      14.99950542       0.00225764       0.00992735      -0.00200353
Ti       4.03737290      -1.39874759      15.02676452       0.00898571       0.00332069      -0.00068199
Ti       7.17630964       2.51628589      15.92734563       0.00787910       0.00058070       0.00192167
Ti       2.59330828       0.80327991      15.94161142      -0.00059341       0.01112552      -0.00257265
Ti       5.73782286       4.80192688      17.14938975       0.00402445      -0.00155256       0.00528235
Ti       5.31570808       0.70628476      17.17408710       0.00110044       0.00046084      -0.00608885
Ti       3.62135201       2.95524375      17.60000127      -0.00328774       0.00588171      -0.00447207
Ti       0.34414306       0.49758599      17.62854721      -0.00068919       0.00850546       0.00487830
Ti       2.90784848       0.49547296      18.72633979       0.00127855       0.00969811      -0.00562712
Ti       6.78881909       2.62177823      18.72575557       0.00074149      -0.00097338      -0.00258408
Ti       4.93624299       5.19498859      20.03441433       0.00737527       0.00924169      -0.00284666
Ti       1.64716388       2.75954750      20.02321383       0.00007078      -0.00504992       0.00157469
Ti       4.39739627       2.41813059      20.21725682       0.00248384       0.00552242      -0.00175020
Ti       3.93401451      -1.64923580      20.29107729      -0.01193048      -0.00760793       0.00042816
Ti       6.92526921       2.52271346      21.51134730       0.00257396      -0.00241477       0.00068697
Ti       2.71426748       0.57118969      21.50648201      -0.00132627      -0.00437642       0.00615251
Ti       3.62985938       2.84912400      22.86613462      -0.01256910      -0.00438568       0.00051226
V        0.27107949       0.39499839      22.88375453       0.01404096      -0.00141675       0.00029043
Ti       5.75083537       4.75357535      22.87129373       0.00190981       0.00786224       0.00064826
Ti       5.24021141       0.55321624      22.88922808      -0.00122573       0.00382906       0.00063791
Ti       2.70451690       0.58014375      24.26772594      -0.00079045      -0.00521815      -0.00659148
Ti       6.93683710       2.51690233      24.23078504       0.00352043      -0.00289144       0.00082810
Ti       3.93988360      -1.63850656      25.46623309      -0.01078394      -0.00952764       0.00009708
Ti       4.40476436       2.42533431      25.50600820       0.00226459       0.00486952       0.00058971
Ti       1.65130673       2.76897208      25.75797001      -0.00095692       0.00077115       0.00012902
Ti       4.94719291       5.19942943      25.71084790       0.00361501       0.01114198       0.00402278
Ti       2.94627853       0.49370152      27.05546729       0.00546361       0.01006313       0.00153949
Ti       6.77271589       2.65071770      27.02211767       0.00226579       0.00066256       0.00195027
Ti       0.36931797       0.52870756      28.10901511      -0.00046793       0.01093346      -0.00652916
Ti       3.64409557       2.99294723      28.10782106      -0.00271321       0.00493494       0.00348851
Ti       5.35034610       0.72604973      28.60953774       0.00037249       0.00177439       0.00526389
Ti       5.74520487       4.83902431      28.60299039       0.00643033       0.00054056      -0.00863814
Ti       7.23936053       2.54358546      29.81172167       0.00666478       0.00071163      -0.00227536
Ti       2.58482629       0.87049301      29.82790773       0.00088836       0.01220708       0.00264668
Ti       4.58094982       2.71662792      30.70197700       0.00081655       0.01060409       0.00084060
Ti       4.08099910      -1.32659925      30.70369350       0.00542870       0.00310149       0.00134492
Ti       6.13792198       0.50032222      31.47923185       0.00851271       0.00003432       0.00598743
Ti       5.14377804       5.41782243      31.45961660       0.00895620       0.00285391       0.00707120
Ti       3.37473566       0.71847424      32.54513785       0.00020397       0.00198641       0.00250993
Ti       6.70976561       3.14725445      32.53000553       0.00390107       0.00319466       0.00371783
Ti       3.92204954       3.46798248      33.32633528       0.00030023      -0.00383342       0.00377222
Ti       0.62424056       1.01713802      33.33717556       0.00090228      -0.00515753       0.00047273
Ti       2.17053003      -1.23407967      34.34587022       0.00141024       0.00018658       0.00376366
Ti       5.61975086       1.12208471      34.32751672      -0.00475729       0.00068340       0.00323217
Ti       3.23637613       5.50294293      35.18523847      -0.00516066       0.00481299       0.00321401
Ti       2.73090880       1.44801192      35.19885946       0.00067705      -0.00686394       0.00123276
Ti       4.78923718       3.29281866      36.02055182      -0.00117415      -0.00316269      -0.00168185
Ti       4.46854348      -0.87435621      36.03402864      -0.00061487       0.00115261       0.00474460
Ti       6.41849479       0.94407005      37.18380792       0.00085164      -0.00185237      -0.00142564
Ti       1.61792233      -0.63583337      37.20222904      -0.00215955      -0.00091611      -0.00156479
Ti       6.97411447       3.67768903      37.78443172       0.00731555      -0.00433679      -0.00036066
Ti       3.70794388       1.21160378      37.79829472      -0.00399998       0.00191035      -0.00027391
Ti       4.37854624       3.75891683      38.78222356       0.00137048      -0.00588672       0.00163442
Ti       5.07773328      -0.99452574      38.79688847      -0.00689942      -0.00135402       0.00565122
Ti       5.73955411       1.48435605      40.06758849      -0.00111175      -0.00675861       0.00329021
Ti       2.42998914      -0.95531610      40.08380511      -0.00483823      -0.00382884       0.00436615
Ti       3.45018386       5.89482056      40.38762410      -0.00122405      -0.00294811       0.00017430
Ti       2.96759158       1.82135379      40.40259862      -0.00105188       0.00246396       0.00129438
Ti       4.67033638       3.67794750      41.58771848      -0.00542604       0.00022088       0.00753167
Ti       4.86674253      -0.78620829      41.60377395      -0.00130477      -0.00201648       0.00858715
Ti       2.13249089       3.61452422      42.93081484      -0.00513325      -0.00247827       0.00912624
Ti       1.65422661      -0.46057653      42.94632103      -0.00179540      -0.00428379       0.01102998
Ti       7.09723661       3.84282681      43.04474393      -0.00535964      -0.00218542       0.00633690
Ti       3.79569026       1.39755380      43.05934955       0.00171938      -0.00277298       0.00888603
Ti       4.60455727       3.73962650      44.37446706      -0.00254738      -0.00099584       0.00504163
Ti       4.95335368      -0.81197604      44.39021035       0.00027294      -0.00372457       0.00480031
Ti       3.46914735       5.94863870      45.74021743      -0.00012312      -0.00597216       0.00022789
Ti       3.00735254       1.86378873      45.75596470      -0.00352580      -0.00098555       0.00087394
