52
Lattice="5.088765 0.0 0.0 0.0 5.495746 0.0 0.0 0.0 32.722931" Properties=species:S:1:pos:R:3:forces:R:3 job_name=Segregation-1sol-C1-Al-Al-26-d-0.00 top_level=Segregation-1sol solute=Al energy=-398.91823578 stress_kbar_3x3="_JSON [[-39.17520973, 3.06953528, 0.00188069], [3.0695353, -26.63572704, -0.00240124], [0.0018807, -0.00240124, -18.61518103]]" pbc="T T T"
Ti       2.61629125       0.79484987       0.00012417      -0.00052785      -0.00174182       0.00030670
Ti       0.03330702       1.59949994       1.37635326      -0.00020869       0.00189667       0.00336791
Ti       0.81948919       4.34567358       1.37847640       0.00081078       0.00093417       0.00264041
Ti       2.57314547       2.35793158       2.59062432       0.00189565       0.00170879       0.00998886
Ti       3.36743399       5.10566847       2.58910361       0.00096924       0.00099370       0.00677340
Ti       0.81230154       0.38783363       3.83439744      -0.00367504       0.00064205       0.00818867
Ti       0.03468361       3.13584762       3.83476034      -0.00283557       0.00191486       0.00651831
Ti       3.37309124       1.18055483       5.08097738      -0.00335542       0.00049201       0.00407496
Ti       2.56491679       3.92977941       5.07426634      -0.00330584       0.00166435       0.00032396
Ti       0.01464275       4.70258369       6.32117431      -0.00343504       0.00302323       0.00019189
Ti       0.83235337       1.95472038       6.32006894      -0.00219881      -0.00020815      -0.00680236
Ti       3.36150403       2.74227749       7.56766012       0.00133768       0.00270335      -0.00270731
Ti       2.55548440       5.49078726       7.56765676      -0.00119877       0.00233616      -0.00226333
Ti       0.82669281       3.54235513       8.82168455       0.00155065      -0.00034248       0.00445162
Ti       0.01004981       0.79799323       8.80465225       0.00035592       0.00197881       0.00292098
Ti       2.55193822       1.57745753      10.06431358      -0.00092571      -0.00290120       0.00092706
Ti       3.37509067       4.31862752      10.05160001      -0.00400658       0.00079636       0.00241761
Ti       0.79677754       5.11157228      11.29367660      -0.00117485       0.00088274      -0.00294616
Ti       0.01495351       2.34825097      11.31198263       0.00225583      -0.00154792       0.00168849
Ti       3.33236100       0.40923861      12.56271707      -0.00039420      -0.00026845      -0.00867501
Ti       2.56106704       3.15980575      12.54591150      -0.00216106      -0.00475874      -0.00478975
Ti       0.01729690       3.90360541      13.78923720       0.00434512      -0.00740749      -0.00763970
Ti       0.84352120       1.20517072      13.78388432       0.00522960      -0.00080340      -0.00637972
Ti       2.64578603       4.61596031      15.00030707       0.00856730      -0.00478646       0.00024131
Ti       3.39769789       1.88329356      14.95750686       0.00205982      -0.00615513       0.00475964
Ti       0.73683868       2.77550721      16.36118425       0.00678752      -0.00358309       0.00066580
Al       0.11083843       0.01302852      16.36146410      -0.00708301       0.01705274      -0.00036492
Ti       3.39761527       1.88364353      17.76526239       0.00214891      -0.00601515      -0.00495955
Ti       2.64578613       4.61629802      17.72259020       0.00799307      -0.00506994      -0.00084926
Ti       0.01738508       3.90383067      18.93363548       0.00420720      -0.00815217       0.00699319
Ti       0.84361064       1.20535245      18.93909867       0.00491090      -0.00054243       0.00551597
Ti       3.33248794       0.40935968      20.16018353      -0.00031011       0.00018974       0.00913751
Ti       2.56107263       3.15999623      20.17713467      -0.00146781      -0.00466157       0.00470323
Ti       0.79688757       5.11173631      21.42938627      -0.00130878       0.00112262       0.00306783
Ti       0.01496117       2.34842426      21.41112091       0.00220185      -0.00143446      -0.00170780
Ti       2.55203453       1.57772613      22.65860866      -0.00102054      -0.00293448      -0.00018096
Ti       3.37523198       4.31890757      22.67134244      -0.00397317       0.00067635      -0.00153311
Ti       0.01013277       0.79831675      23.91826625       0.00029331       0.00196485      -0.00185543
Ti       0.82681798       3.54265226      23.90115791       0.00132876      -0.00019350      -0.00325841
Ti       3.36153108       2.74260984      25.15519455       0.00148186       0.00268757       0.00278235
Ti       2.55548256       5.49110938      25.15519657      -0.00111274       0.00241924       0.00245504
Ti       0.83241385       1.95508092      26.40296398      -0.00229650      -0.00031799       0.00576714
Ti       0.01469441       4.70289223      26.40179603      -0.00325631       0.00299156      -0.00137498
Ti       2.56502539       3.93002204      27.64884105      -0.00338181       0.00167036      -0.00138710
Ti       3.37309975       1.18079117      27.64197300      -0.00324230       0.00059235      -0.00507181
Ti       0.81223629       0.38804677      28.88859887      -0.00359559       0.00068529      -0.00866817
Ti       0.03467475       3.13605020      28.88830488      -0.00289953       0.00207398      -0.00691340
Ti       2.57313987       2.35815636      30.13223573       0.00175981       0.00170211      -0.01006903
Ti       3.36747323       5.10597310      30.13396008       0.00087476       0.00045821      -0.00688331
Ti       0.81957135       4.34601071      31.34428136       0.00118591       0.00120314      -0.00172040
Ti       0.03364246       1.59990546      31.34658279      -0.00037588       0.00158598      -0.00248438
Ti       3.31161112       3.54188427      32.72272434       0.00017606       0.00278266       0.00061554
