64
Lattice="5.088765 0.0 0.0 0.0 9.739025 0.0 0.0 0.0 22.303587" Properties=species:S:1:pos:R:3:forces:R:3 job_name=Segregation-1sol-T2-V-V-51-d-6.29 top_level=Segregation-1sol solute=V energy=-495.97670385 stress_kbar_3x3="_JSON [[-0.0357721, 9.61691819, -0.24411969], [9.61691821, -18.57914724, 0.32912314], [-0.24411971, 0.32912315, -18.54377499]]" pbc="T T T"
Ti       2.51450745       9.39141809      22.12603421      -0.00100574      -0.00560810       0.00152872
Ti       5.06833759       4.51053646      22.11613426       0.00054638       0.00486092       0.00357753
Ti       1.21295833       1.91266255       0.56682135      -0.00186192       0.00287618      -0.00033770
Ti       3.76852067       6.78009526       0.56764054       0.00522750       0.00076324      -0.00019168
Ti       2.83359317       4.01750665       1.44219753      -0.00082484       0.00468549      -0.00126157
Ti       0.28447726       8.88643061       1.45108689      -0.00294034      -0.00108072      -0.00039706
Ti       0.97713826       6.06367248       2.08203475      -0.00117331      -0.00180159       0.00405657
Ti       3.51626133       1.19962781       2.07777513       0.00131475       0.00123080       0.00456273
Ti       0.15085485       3.38598477       2.77351523      -0.00032866       0.00111443       0.00575854
Ti       2.69460030       8.25712325       2.77421409       0.00475590      -0.00078238       0.00403244
Ti       1.09975936       0.81285177       3.53356853       0.00263373       0.00111878       0.00871497
Ti       3.64750471       5.68331476       3.53068715      -0.00266681      -0.00347369       0.01141067
Ti       2.75923872       3.03231143       4.14658207       0.00112233      -0.00725470       0.00947048
Ti       0.21604783       7.90025855       4.15077315      -0.00201476       0.00064434       0.00849820
Ti       3.60006938       0.35439534       4.83462914       0.00520277       0.00160751       0.00747219
Ti       1.05697243       5.22332932       4.83632127       0.00101006      -0.00111345       0.00224756
Ti       2.74539685       7.43928090       5.61107213       0.00034978       0.00888614       0.00012881
Ti       0.20024492       2.56964889       5.61260068       0.00190166       0.00289162      -0.00081085
Ti       3.59655380       4.77066074       6.30437917      -0.00310601       0.00146025      -0.00797900
Ti       1.05027586       9.64060571       6.30805850       0.00242656      -0.00440014      -0.00403613
Ti       0.16679293       6.98986181       6.92219964       0.00115759       0.00269628      -0.00804711
Ti       2.71102515       2.11971609       6.92026898      -0.00392261      -0.00426945      -0.00899332
Ti       1.10414847       4.40955734       7.65969906       0.00083453      -0.00833693      -0.00831647
Ti       3.64850604       9.28026698       7.66323638       0.00133130      -0.01176865      -0.00269428
Ti       0.28486953       1.72410603       8.38231977      -0.00489980       0.00001687      -0.01355932
Ti       2.82737165       6.59361386       8.37600038      -0.00977697       0.00229425       0.00064256
Ti       0.97412958       8.65197951       9.01873233       0.00798152      -0.00995879      -0.00209793
Ti       3.51627749       3.78375330       9.01088138       0.00679164      -0.01229099      -0.00114210
Ti       2.60207749       0.98826892       9.86155393       0.00956463       0.00822303      -0.01147714
Ti       0.05440525       5.85803241       9.85473396       0.00067617       0.01005052      -0.00822686
Ti       3.85460307       8.13429045      10.60044650      -0.00932220       0.00182946      -0.00437529
Ti       1.31529114       3.26259821      10.59877189      -0.00546750      -0.00464801      -0.00024825
Ti       0.03537165       0.84111240      11.05392574      -0.00160473      -0.00518817       0.00722893
Ti       2.57582815       5.71164914      11.04786072      -0.00038955      -0.00123711       0.00378061
Ti       3.86795274       3.43723191      11.76006739       0.00356104      -0.01393813      -0.00413969
Ti       1.31954641       8.30888263      11.77538889       0.00820621      -0.00537607      -0.00014189
Ti       2.31696688       1.31157419      12.63351525      -0.00775439      -0.00547222      -0.00593941
Ti       4.84750791       6.17732804      12.61691029      -0.00954798      -0.00379684      -0.01355513
Ti       1.52397664       4.05237461      13.27449850       0.00359355      -0.00136632       0.00235124
Ti       4.06328091       8.92710357      13.28394465      -0.00095559       0.00072877       0.00995873
Ti       4.93283511       1.85359422      13.89806288      -0.00046841       0.00371437       0.00338112
Ti       2.38858943       6.73507179      13.91241040       0.00599613       0.00167050       0.00884156
Ti       1.43377037       9.30564501      14.70948407       0.00089908       0.00835569       0.00882461
Ti       3.97054246       4.41636495      14.67974604       0.00295270       0.00571032       0.01182155
Ti       4.82038090       7.10368874      15.31459446       0.00554594      -0.00247921       0.01483322
Ti       2.26883997       2.21223319      15.37314082       0.00679877       0.00042126       0.01200184
Ti       1.51462107       4.99232289      15.99785480       0.00411727       0.00204226       0.00917984
Ti       4.10419498       0.14415253      16.02648655      -0.00261512      -0.00191004       0.00874059
Ti       2.40765846       7.70105102      16.81694180      -0.00191860      -0.00411166       0.00377933
Ti       4.99729907       2.74985392      16.81716267      -0.00283356       0.00369049      -0.00323451
Ti       3.97867274       5.40092735      17.49501727      -0.00261975      -0.00399272      -0.00608732
V        1.40696288       0.55771581      17.58211718      -0.00270550       0.00342731      -0.00194644
Ti       4.99971435       8.01898151      17.97613253       0.00131845      -0.00075064      -0.00489786
Ti       2.44191776       3.12573726      17.98144302       0.00342630       0.01096695      -0.00813119
Ti       1.40294781       5.69942065      18.75885477       0.00169913       0.00482635      -0.00537425
Ti       3.90483667       0.78170370      18.75108685      -0.00746729       0.00874634      -0.00891357
Ti       2.16757905       8.41612979      19.49450468       0.00210766       0.00103914      -0.00677747
Ti       4.73755537       3.51200740      19.50394815      -0.00289263       0.00157467      -0.00048966
Ti       1.60781701       1.60927495      20.11866053       0.00231765       0.00813804      -0.00158435
Ti       4.18032460       6.48579799      20.13764890      -0.00370827      -0.00451258      -0.00059187
Ti       5.05437547       9.25828560      21.00512639      -0.00466680       0.00246862      -0.00623324
Ti       2.52304298       4.39957468      20.99319239      -0.00370005      -0.00100594      -0.00625567
Ti       3.76319817       2.08877902      21.74438289       0.00002378       0.00057634      -0.00459755
Ti       1.23341847       6.96732902      21.76215241      -0.00223281       0.00657769      -0.00374199
