64
Lattice="5.088765 0.0 0.0 0.0 9.739025 0.0 0.0 0.0 22.303587" Properties=species:S:1:pos:R:3:forces:R:3 job_name=Segregation-1sol-T2-Al-Al-36-d-1.39 top_level=Segregation-1sol solute=Al energy=-492.07613228 stress_kbar_3x3="_JSON [[-1.24863646, 2.62189271, 2.48624005], [2.6218927, -16.29822324, 3.57409977], [2.48624005, 3.5740998, -17.29436728]]" pbc="T T T"
Ti       2.55838877       9.27098369       0.01139674      -0.00051372       0.00482555       0.00251388
Ti       0.02707508       4.39993759       0.00258871       0.00269734       0.00186423       0.00086541
Ti       1.29312783       1.90459710       0.60330067       0.00737428      -0.00297335       0.00157140
Ti       3.84138848       6.77007550       0.60662424      -0.00150144       0.00311941      -0.00089622
Ti       2.71027611       4.10937333       1.37216813      -0.00472918      -0.00162768       0.00043063
Ti       0.15958728       8.97935035       1.38873973       0.00229456       0.00557878      -0.00021479
Ti       1.02948545       6.22354630       2.13688190       0.00016741       0.00017079      -0.00157707
Ti       3.56911300       1.35128812       2.13139485      -0.00549076       0.00112466       0.00141674
Ti       0.23025834       3.49491776       2.75142256      -0.00252953      -0.00163580       0.00401072
Ti       2.77475173       8.36082902       2.75571528      -0.00317301       0.00430430      -0.00272586
Ti       1.10396724       0.85732567       3.51488126       0.00002067       0.00306959       0.00066901
Ti       3.64676858       5.72386712       3.51176870       0.00014371       0.00055447       0.00153514
Ti       2.75625186       3.09733272       4.18080991      -0.00011863       0.00234007       0.00416559
Ti       0.21256912       7.96787430       4.19351973      -0.00171344       0.00213911       0.00167658
Ti       3.58943413       0.40024268       4.85062301       0.00250720      -0.00158158      -0.00153732
Ti       1.04638757       5.27225528       4.85879305      -0.00363943       0.00016441       0.00072591
Ti       2.72689150       7.48709313       5.58234320       0.00105513      -0.00234816      -0.00284528
Ti       0.18178735       2.62307522       5.58262302      -0.00339286       0.00142126       0.00238600
Ti       3.59857650       4.83753118       6.31692778      -0.00039443      -0.00172244       0.00066175
Ti       1.05205327       9.70725803       6.33283031       0.00272924       0.00074564      -0.00156862
Ti       0.16617726       7.05298579       6.94111496      -0.00189196      -0.00095832      -0.00649987
Ti       2.70901427       2.17715494       6.92063218       0.00380273       0.00448020       0.00292512
Ti       1.07473351       4.45857765       7.64864286       0.00098259      -0.00750556      -0.00236113
Ti       3.62166774       9.31020724       7.63697593       0.00544318       0.00175526       0.00367777
Ti       0.23361276       1.77812026       8.38277531       0.00891446      -0.00319406       0.00498867
Ti       2.78467952       6.63955589       8.37891257       0.00358163      -0.00368029      -0.00556253
Ti       0.92783563       8.70632478       9.06211860       0.00603661      -0.00515123       0.00058402
Ti       3.48996401       3.83617654       9.01821832      -0.00536902      -0.00885012       0.00309084
Ti       2.58749992       1.02282944       9.77780107       0.00366483      -0.00808766       0.00441137
Ti       0.00845150       5.89620213       9.86095011      -0.00217226      -0.00024816      -0.00807695
Ti       3.80676133       8.18014252      10.59757791       0.00106126      -0.00587252      -0.01486170
Ti       1.30399559       3.31278691      10.56942277       0.00020077      -0.00305547       0.00745556
Ti       5.07209469       0.94125471      11.09527807       0.00390533      -0.00440740       0.00311257
Ti       2.53904290       5.77604401      11.08728178      -0.00113162      -0.00460522      -0.00043444
Ti       3.92484710       3.56735427      11.75060822      -0.00259725       0.00174272       0.00379812
Ti       1.27640205       8.39685144      11.80846024      -0.00356533      -0.00489576      -0.00081326
Al       2.35426324       1.37106875      12.52520378       0.00324079      -0.00711063       0.00396608
Ti       4.87924155       6.22805236      12.62374885      -0.00256773      -0.00712674      -0.00599511
Ti       1.56099288       4.04738075      13.25046981       0.00006605      -0.00698989       0.00579726
Ti       3.97122071       8.91883125      13.31024186      -0.00210208      -0.00315117      -0.00398373
Ti       4.88091738       1.86582031      13.88417819       0.00073061      -0.00207446       0.00281820
Ti       2.36232735       6.75391538      13.90974078      -0.00187279      -0.00243187      -0.00202490
Ti       1.39290954       9.34391922      14.58347137       0.00209965       0.00479773       0.00092298
Ti       4.01760990       4.48026453      14.67316526      -0.00033994       0.00233444       0.00096520
Ti       4.90116538       7.10528090      15.35415370      -0.00133452       0.00047869      -0.00109192
Ti       2.38312224       2.21128169      15.28693779       0.00199040       0.00172581      -0.00188788
Ti       1.52560563       4.89477060      15.99681891      -0.00077744       0.00018982       0.00297583
Ti       4.07360793       0.02039375      16.02927321       0.00075031      -0.00318922       0.00066291
Ti       2.35814839       7.56801361      16.70471767      -0.00293322       0.00369156      -0.00249834
Ti       4.91711756       2.67641138      16.70939667       0.00029877       0.00435637      -0.00161606
Ti       4.04545747       5.32427575      17.46269852      -0.00038000       0.00607192      -0.00204781
Ti       1.49921328       0.46501474      17.44588306      -0.00026528       0.00450688       0.00237088
Ti       4.90877719       7.98652734      18.13314673      -0.00207983       0.00410228       0.00060068
Ti       2.36839560       3.11756242      18.09919777      -0.00166129       0.00467444       0.00187979
Ti       1.46479107       5.74852130      18.78317790      -0.00273407       0.01015872       0.00013176
Ti       4.00301155       0.87586808      18.79947340       0.00283774       0.00729459       0.00015732
Ti       2.35379170       8.36186452      19.53324195      -0.00022623       0.00799048      -0.00162269
Ti       4.90266626       3.48009916      19.52837723       0.00500956       0.00902741       0.00046613
Ti       1.54241485       1.33739493      20.17564083      -0.00228735       0.00370147       0.00115967
Ti       4.09079378       6.19965265      20.18544650      -0.00602462       0.00575787      -0.00187694
Ti       4.92430606       8.94168410      20.91059968       0.00206075      -0.00226808      -0.00767206
Ti       2.38652555       4.07138432      20.88809545      -0.00143856      -0.00193295       0.00207660
Ti       3.83935000       1.88667358      21.69851056      -0.00236977      -0.00451504       0.00104336
Ti       1.30167430       6.75740976      21.69692874      -0.00034896      -0.00707009      -0.00237497
