52
Lattice="5.088765 0.0 0.0 0.0 5.495746 0.0 0.0 0.0 32.722931" Properties=species:S:1:pos:R:3:forces:R:3 job_name=Segregation-1sol-C1-V-V-26-d-0.00 top_level=Segregation-1sol solute=V energy=-402.79075958 stress_kbar_3x3="_JSON [[-41.08069676, 0.47824498, 0.0206895], [0.47824495, -31.61596351, 0.00488287], [0.0206895, 0.00488289, -21.37837185]]" pbc="T T T"
Ti       2.62245205       0.79708043       0.00033826      -0.00491218      -0.00140254       0.00022104
Ti       0.02842572       1.60136865       1.38099984       0.00061980       0.00040050      -0.00482349
Ti       0.81637400       4.34870608       1.38143841      -0.00009473       0.00494025      -0.00530040
Ti       2.57037413       2.35771810       2.59423158       0.00023215      -0.00231746       0.00093896
Ti       3.36714707       5.10406590       2.59652989      -0.00228788       0.00401661       0.00147554
Ti       0.80997143       0.38801089       3.83797567      -0.00075160      -0.00296130       0.01074147
Ti       0.03664708       3.13485726       3.84198119      -0.00238215      -0.00018140       0.01270654
Ti       3.36772358       1.18438719       5.08524526       0.00075889      -0.00789251       0.00927036
Ti       2.56105761       3.93185374       5.08323913      -0.00090035       0.00280179       0.01017092
Ti       0.01184142       4.70192726       6.32696585      -0.00365231       0.00239185      -0.00431964
Ti       0.83618212       1.95249560       6.33340778       0.00266619       0.00133690       0.00030597
Ti       3.36742425       2.73705154       7.56825171      -0.00465129       0.00959992      -0.00925042
Ti       2.56705792       5.48336487       7.58223711      -0.00418570       0.00056236      -0.00973595
Ti       0.81519502       3.54423372       8.83196685       0.00380547       0.00179641      -0.00541114
Ti       0.00812281       0.79719154       8.83617427       0.00542343       0.00002576      -0.00177942
Ti       2.55023343       1.57792967      10.06002899       0.00238580      -0.00681509       0.01126232
Ti       3.38156060       4.31874570      10.07780054      -0.00339655      -0.00487351       0.01840062
Ti       0.82664595       5.08896543      11.31371186       0.00330954      -0.00677902       0.00648293
Ti       0.03018098       2.33986243      11.34037152      -0.00622623      -0.00201708       0.00936007
Ti       3.33336902       0.41201811      12.54629877       0.01122256       0.00873020      -0.00383914
Ti       2.57275229       3.16066433      12.57575969      -0.00211512      -0.00099524      -0.00427775
Ti       0.03199970       3.92652994      13.83560196       0.00648758       0.00641317      -0.01538611
Ti       0.80603684       1.15884204      13.86271354      -0.00452559       0.00290121      -0.01291779
Ti       2.60969360       4.70374129      15.01799502       0.00252581      -0.00563974      -0.00853958
Ti       3.39674437       1.94281109      14.98680781      -0.00321898      -0.00857709      -0.00999848
Ti       0.74963001       2.69636157      16.36136704       0.00558969       0.00283720      -0.00028326
V        0.11309795       5.39927229      16.36295692      -0.00583233       0.00345253      -0.00082925
Ti       3.39731143       1.94373214      17.73583923      -0.00368369      -0.00759376       0.00732178
Ti       2.60870747       4.70457253      17.70557965       0.00213241      -0.00515490       0.00631708
Ti       0.03289785       3.92765645      18.88679541       0.00481692       0.00524183       0.01377297
Ti       0.80600066       1.16015338      18.86034515      -0.00257928       0.00205527       0.01182705
Ti       3.33379150       0.41229281      20.17653623       0.01053806       0.00916455       0.00538796
Ti       2.57339162       3.16096045      20.14739861      -0.00020347      -0.00189771       0.00602094
Ti       0.82698962       5.08913735      21.40882588       0.00356510      -0.00542192      -0.00357653
Ti       0.03027827       2.34006512      21.38269779      -0.00714937      -0.00115475      -0.00725796
Ti       2.55054335       1.57835540      22.66248891       0.00202160      -0.00640428      -0.00864142
Ti       3.38178040       4.31941302      22.64508010      -0.00365740      -0.00475857      -0.01651140
Ti       0.00847750       0.79746102      23.88677638       0.00525063      -0.00062349       0.00144789
Ti       0.81534716       3.54448304      23.89075598       0.00484937       0.00233141       0.00502880
Ti       3.36735612       2.73768870      25.15448723      -0.00438081       0.00833722       0.00719682
Ti       2.56701225       5.48392881      25.14078760      -0.00395397      -0.00035848       0.00700503
Ti       0.83619514       1.95298871      26.38980469       0.00155661      -0.00008780      -0.00246556
Ti       0.01194644       4.70195815      26.39596683      -0.00331027       0.00415214       0.00185810
Ti       2.56128072       3.93214475      27.63980331      -0.00161907       0.00200823      -0.00929496
Ti       3.36766343       1.18451745      27.63741154       0.00199104      -0.00665688      -0.00868321
Ti       0.80970264       0.38794324      28.88482463      -0.00141197      -0.00115792      -0.00949933
Ti       0.03647198       3.13493813      28.88120843      -0.00164997      -0.00068432      -0.01133587
Ti       2.57016130       2.35752130      30.12850715      -0.00044792      -0.00141980      -0.00074034
Ti       3.36698588       5.10403599      30.12656769      -0.00107423       0.00387606      -0.00083071
Ti       0.81686568       4.34930181      31.34102239      -0.00001752       0.00336758       0.00570893
Ti       0.02882254       1.60174867      31.34205435       0.00021197       0.00090318       0.00492218
Ti       3.31425228       3.54334170      32.72224436       0.00231132       0.00018243       0.00037686
