64
Lattice="5.871999 0.0 0.0 0.0 6.890708 0.0 0.0 0.0 27.401158" Properties=species:S:1:pos:R:3:forces:R:3 job_name=Segregation-1sol-T1m-Al-Al-39-d-2.03 top_level=Segregation-1sol solute=Al energy=-492.00303224 stress_kbar_3x3="_JSON [[-10.42120158, 0.00016796, -9.605e-05], [0.00016797, -14.61352744, -1.26430312], [-9.603e-05, -1.26430313, -15.53455716]]" pbc="T T T"
Ti       2.93710902       0.10419269      27.39915109       0.00235860      -0.00027328       0.00293316
Ti       2.93625715       2.94251190      27.39882076      -0.00021226      -0.00274857      -0.00018781
Ti       5.87096983       0.10418991      27.39914662      -0.00237753      -0.00025121       0.00294627
Ti       5.87180269       2.94250514      27.39882276       0.00023323      -0.00264042      -0.00019140
Ti       4.40401866       5.03036732       1.40948688       0.00002087      -0.00477954       0.00163981
Ti       1.46804432       5.03075424       1.41141333      -0.00015289      -0.00425381       0.00208236
Ti       4.40403508       1.31967218       2.02345935      -0.00010961       0.00211918      -0.00016739
Ti       1.46804836       1.32168325       2.02501285      -0.00000404       0.00166577      -0.00183324
Ti       2.93645606       3.41248566       3.20394197      -0.00060797       0.00085922      -0.00563829
Ti       5.87160477       3.41246087       3.20394751       0.00059602       0.00116309      -0.00577316
Ti       2.93608711       6.23026287       3.61568810       0.00008204       0.00253362      -0.00723892
Ti       5.87199087       6.23027209       3.61569058      -0.00018031       0.00234268      -0.00732169
Ti       1.46801690       1.49320402       4.83509587       0.00009087      -0.00100008      -0.00757533
Ti       4.40403543       1.49618992       4.83219590      -0.00009378      -0.00089073      -0.00611993
Ti       1.46802869       4.44264913       5.43653875      -0.00004406       0.00454880      -0.00947393
Ti       4.40402065       4.44164130       5.43383520       0.00000116       0.00494141      -0.01002547
Ti       2.93947771       6.59902156       6.59697527      -0.00155158       0.00736067      -0.00439880
Ti       5.86853789       6.59902357       6.59699060       0.00157722       0.00723796      -0.00451656
Ti       2.93752924       2.52182506       7.09563272      -0.00179240       0.00476035       0.00165926
Ti       5.87049363       2.52182642       7.09562691       0.00186639       0.00476681       0.00168134
Ti       4.40401514       4.68934126       8.25918712      -0.00005521       0.00013075       0.00462762
Ti       1.46798933       4.68400293       8.25984265       0.00008495      -0.00033506       0.00507565
Ti       4.40400511       0.73206069       8.87222613      -0.00008971       0.01174468       0.00488041
Ti       1.46800402       0.73458525       8.84451629       0.00006831       0.01175760      -0.00124536
Ti       5.86868996       2.90291179      10.07465596      -0.00080742       0.00080138      -0.00158064
Ti       2.93929700       2.90290498      10.07466639       0.00080260       0.00084360      -0.00163010
Ti       5.86168822       5.70598749      10.49533651      -0.00207646       0.00315872       0.00025428
Ti       2.94631574       5.70598125      10.49535505       0.00207449       0.00325557       0.00008083
Ti       1.46800894       0.94370408      11.61999453      -0.00005955      -0.01024747      -0.00299373
Ti       4.40396908       0.93374066      11.67766066       0.00010487      -0.00901061      -0.00107689
Ti       1.46798418       4.08073985      12.28284981      -0.00001791       0.01746406       0.00322643
Ti       4.40400161       4.08674073      12.28938456       0.00003199       0.01421691       0.00636332
Ti       2.88825804       2.09408179      13.69614105      -0.00014521      -0.00320527       0.00668685
Ti       0.04773145       2.09408900      13.69613906       0.00017631      -0.00334297       0.00674324
Ti       2.92594949       6.20403178      13.70128498      -0.00310947      -0.00741148       0.01105712
Ti       0.01000463       6.20401700      13.70130083       0.00308659      -0.00728998       0.01098969
Ti       4.40399912       4.08590952      15.10362311       0.00000485       0.01325362       0.00221265
Ti       1.46797872       3.97643876      15.13230557      -0.00001187       0.01129010       0.00952666
Ti       4.40399288       0.95563471      15.77946497       0.00001919      -0.00573654      -0.00130647
Al       1.46798364       0.94129729      15.73415367       0.00007156      -0.00957801       0.01077968
Ti       2.93125608       5.71935761      16.90990318       0.00126881      -0.00262521      -0.01097017
Ti       0.00475400       5.71935837      16.90991481      -0.00124097      -0.00267827      -0.01096148
Ti       2.95119134       2.86930799      17.33452793      -0.00095314       0.00096934      -0.00513457
Ti       5.85680203       2.86929445      17.33450582       0.00097875       0.00101645      -0.00493677
Ti       4.40400264       0.71551776      18.61470010       0.00010340       0.00004989      -0.00771036
Ti       1.46803074       0.70010768      18.52968803      -0.00005975       0.00558853      -0.00486166
Ti       4.40401291       4.65945540      19.13315847      -0.00005897      -0.00488898      -0.00064432
Ti       1.46801505       4.70381720      19.10197823       0.00002910      -0.00824671      -0.00094339
Ti       0.02023824       2.51457829      20.30661333      -0.00196770       0.00298578       0.00405536
Ti       2.91580219       2.51453807      20.30658307       0.00201040       0.00338019       0.00431184
Ti       0.01518230       6.57449222      20.80729668      -0.00525599      -0.00368479       0.01090251
Ti       2.92088606       6.57452298      20.80729072       0.00520741      -0.00404406       0.01101124
Ti       1.46801619       4.43102223      21.96223950       0.00023158      -0.00582753       0.00865431
Ti       4.40404865       4.43044413      21.97304335      -0.00014167      -0.00374889       0.00493321
Ti       1.46802297       1.49085669      22.56720735       0.00004065      -0.00189312       0.00320044
Ti       4.40403343       1.48568344      22.54941271      -0.00016020      -0.00354541       0.00595018
Ti       2.93617519       6.22972237      23.78117880       0.00137433      -0.00471005      -0.00162441
Ti       5.87187807       6.22970017      23.78117938      -0.00135886      -0.00455185      -0.00163545
Ti       2.93614865       3.40945948      24.19698430      -0.00012348      -0.00335436      -0.00197373
Ti       5.87191542       3.40947269      24.19695292       0.00014972      -0.00351385      -0.00174496
Ti       4.40401724       1.31708319      25.36707361       0.00009579      -0.00142445      -0.00513497
Ti       1.46803272       1.32184736      25.37638606      -0.00009330      -0.00302871      -0.00274604
Ti       4.40403269       5.03179556      25.98579625       0.00004576      -0.00589812      -0.00448391
Ti       1.46802634       5.02921738      25.98819548       0.00002546      -0.00554733      -0.00266444
