64
Lattice="5.871999 0.0 0.0 0.0 6.890708 0.0 0.0 0.0 27.401158" Properties=species:S:1:pos:R:3:forces:R:3 job_name=Segregation-1sol-T1m-Al-Al-44-d-4.84 top_level=Segregation-1sol solute=Al energy=-492.02732842 stress_kbar_3x3="_JSON [[-11.3236655, 0.00038944, -0.00025812], [0.00038943, -12.26424413, 0.39369845], [-0.00025809, 0.39369847, -17.74336546]]" pbc="T T T"
Ti       2.92621373       0.10814308      27.40006608      -0.00258663       0.00998526      -0.00314019
Ti       2.93352618       2.94367001      27.39788629      -0.00027475      -0.00109539      -0.00250233
Ti       0.00985136       0.10811260      27.40008371       0.00257342       0.01027540      -0.00336681
Ti       0.00253957       2.94366563      27.39790213       0.00022188      -0.00097637      -0.00262991
Ti       4.40400001       5.03166774       1.40869152       0.00018330      -0.00775713       0.00099035
Ti       1.46805700       5.03328660       1.41432149      -0.00016091      -0.00713870      -0.00361445
Ti       4.40401315       1.32026656       2.02334827       0.00018413       0.00859393      -0.00693215
Ti       1.46805146       1.32208556       2.03348950      -0.00023613       0.00959561      -0.00262807
Ti       2.93870358       3.41361608       3.20665847       0.00011889      -0.00424423       0.00174866
Ti       5.86933683       3.41361289       3.20668965      -0.00007817      -0.00424078       0.00156008
Ti       2.93610878       6.23046655       3.61702827       0.00027715      -0.00405156       0.00670004
Ti      -0.00006099       6.23047889       3.61702075      -0.00026152      -0.00412892       0.00667849
Ti       1.46802444       1.49148750       4.83951335      -0.00004060       0.00737889       0.00575542
Ti       4.40400107       1.49046819       4.83465098       0.00006240       0.00672118       0.00851473
Ti       1.46803182       4.44285878       5.44095806      -0.00009217      -0.00640536      -0.00180687
Ti       4.40400274       4.44115156       5.43895741       0.00010950      -0.00495096       0.00186074
Ti       2.93440445       6.59484767       6.60347688       0.00120199       0.00749880       0.00678362
Ti       0.00159682       6.59484259       6.60348347      -0.00121095       0.00758977       0.00671119
Ti       2.93465680       2.52039801       7.10509226       0.00082112      -0.00507709       0.00204501
Ti       0.00136627       2.52040475       7.10509507      -0.00082111      -0.00514038       0.00197065
Ti       4.40400208       4.67084486       8.26191622      -0.00004146       0.00328995       0.00481431
Ti       1.46799416       4.67461095       8.26553440       0.00006412       0.00495519       0.00824789
Ti       4.40399043       0.73859951       8.85990149       0.00009854      -0.00113331      -0.00948070
Ti       1.46800417       0.73587317       8.88137389      -0.00013209      -0.00328541      -0.00540824
Ti       0.00012061       2.89022153      10.09984744      -0.00017867       0.01028023      -0.00648551
Ti       2.93585389       2.89020537      10.09983928       0.00016313       0.01047971      -0.00634861
Ti       0.00895479       5.70766064      10.49135873       0.00093945      -0.00192528       0.00110836
Ti       2.92702792       5.70766085      10.49133517      -0.00093972      -0.00205293       0.00135030
Ti       1.46794872       0.91030687      11.70100165       0.00032796      -0.00338328      -0.00114388
Ti       4.40402638       0.89793173      11.66152492      -0.00033130      -0.00099215       0.00817334
Ti       1.46795272       4.09618902      12.29378974       0.00026467       0.00641166      -0.00344089
Ti       4.40401951       4.10782410      12.30150365      -0.00032397       0.00873779      -0.00578797
Ti       2.98173093       2.14382000      13.70030146      -0.00105596       0.00022081       0.00105050
Ti       5.82626843       2.14380868      13.70029375       0.00095804       0.00041118       0.00106311
Ti       2.95351062       6.18489366      13.70426372       0.00077882      -0.00105834      -0.00522445
Ti       5.85445723       6.18489650      13.70427336      -0.00081749      -0.00097002      -0.00528930
Ti       4.40403218       4.08813045      15.14807453      -0.00023832      -0.00019009      -0.00356563
Ti       1.46798355       4.10462824      15.13526519       0.00022637      -0.00153101      -0.00407632
Ti       4.40403839       0.90623081      15.75017331      -0.00019283      -0.00684634       0.00451330
Ti       1.46795458       0.88436363      15.65384222       0.00041299      -0.00256322       0.00060862
Ti       2.92770939       5.72187421      16.92884564      -0.00229216       0.01169738       0.00552021
Ti       0.00830752       5.72187467      16.92882445       0.00238227       0.01172600       0.00582695
Ti       2.95800435       2.84865671      17.31016407      -0.00184670      -0.00038427       0.00162309
Ti       5.85000254       2.84866762      17.31014249       0.00187129      -0.00048751       0.00189269
Al       4.40400157       0.70220844      18.54922949       0.00012859      -0.00752293      -0.00614660
Ti       1.46802650       0.69131156      18.49365304      -0.00015463      -0.00959372      -0.00252302
Ti       4.40400936       4.71901259      19.15392124       0.00002340      -0.00310716       0.00743716
Ti       1.46803046       4.59894906      19.12853445      -0.00003365      -0.00380207       0.00673687
Ti       5.84277592       2.48838012      20.28762638       0.00137120       0.00064354       0.01220313
Ti       2.96528023       2.48834513      20.28762932      -0.00145327       0.00100854       0.01209540
Ti       5.85221798       6.59757221      20.79291729      -0.00336687       0.00089565       0.00035232
Ti       2.95581563       6.59758491      20.79293471       0.00346079       0.00077873       0.00020927
Ti       1.46808129       4.44701643      21.93904935      -0.00038016      -0.01261894      -0.00581036
Ti       4.40397533       4.45227392      21.95025186       0.00049004      -0.00693233      -0.00860955
Ti       1.46808580       1.49551985      22.55305892      -0.00040506       0.00981019      -0.01280746
Ti       4.40399863       1.50814114      22.59755438       0.00036784       0.00659334      -0.01881628
Ti       2.92955016       6.22663410      23.76694905       0.00229887      -0.00891972      -0.00597134
Ti       0.00654891       6.22665792      23.76697432      -0.00232299      -0.00897751      -0.00608484
Ti       2.93490902       3.42123215      24.19409437       0.00092646      -0.00320751       0.00073676
Ti       0.00117488       3.42120893      24.19406663      -0.00115599      -0.00312524       0.00082246
Ti       4.40400066       1.32239724      25.38289879       0.00035756       0.00536577       0.01134043
Ti       1.46808466       1.31857108      25.35493843      -0.00030897       0.00816981       0.00582331
Ti       4.40397665       5.03817584      25.98510178       0.00041407      -0.01055480      -0.00526784
Ti       1.46809272       5.03909497      25.99018380      -0.00034502      -0.00874235       0.00004083
