100
Lattice="4.4265 -2.555641 0.0 3.767997 6.526363 -0.031456 0.0 0.0 45.781652" Properties=species:S:1:pos:R:3:forces:R:3 job_name=Segregation-1sol-CSL13-V-V-53-d-1.39 top_level=Segregation-1sol solute=V energy=-775.58331434 stress_kbar_3x3="_JSON [[-37.05644129, -2.88045077, 0.82912657], [-2.88045081, -40.13326929, 1.03326271], [0.8291266, 1.03326268, -18.51495039]]" pbc="T T T"
Ti       2.46021559      -0.92425891       0.01407993       0.00091924      -0.00349063       0.00274299
Ti       5.75571989       1.52413772      -0.00187783      -0.00544074      -0.00186459       0.00320923
Ti       4.97226289      -0.83062539       1.38425555      -0.00231794      -0.00217707       0.00041556
Ti       4.58078392       3.74624988       1.36856219      -0.00182840      -0.00255907       0.00064995
Ti       7.09051252       3.83524781       2.63775927      -0.00131143       0.00077080       0.00505226
Ti       3.79441171       1.38760199       2.65367829       0.00034024      -0.00372159       0.00344473
Ti       1.65017407      -0.46809433       2.87634763       0.00008072       0.00113373      -0.00594189
Ti       2.12901988       3.60627291       2.86054313       0.00140501      -0.00106999      -0.00622337
Ti       4.70998112       3.63691553       4.16789018      -0.00168040      -0.00049470      -0.00207138
Ti       4.81297814      -0.77310509       4.18405076       0.00220699      -0.00447397      -0.00373824
Ti       3.43722082       5.85658318       5.27097246      -0.00236480      -0.00391258       0.00098565
Ti       2.94583020       1.78972618       5.28706034      -0.00591234      -0.00655825      -0.00067139
Ti       2.40203179      -0.97229064       5.75734111      -0.00392686      -0.00226800      -0.00744520
Ti       5.74387780       1.44887868       5.74156650       0.00047709      -0.00234996      -0.00850178
Ti       4.28560485       3.74876594       6.96550244      -0.00022478      -0.00352285      -0.00516146
Ti       5.12325828      -1.08548713       6.98213370      -0.00814618      -0.00264443      -0.00723581
Ti       6.92586982       3.59241551       7.87249789      -0.00082840      -0.00643229      -0.00579304
Ti       3.66832072       1.12365294       7.88872692      -0.00714196      -0.00325681      -0.00544359
Ti       6.37429659       0.88411915       8.61573011      -0.00296499      -0.00177871      -0.00681090
Ti       1.59831599      -0.70871388       8.63132062      -0.00355823      -0.00342927      -0.00644198
Ti       4.78634474       3.18311842       9.70184178      -0.00252229       0.00059251      -0.01010306
Ti       4.37902874      -0.93334798       9.71829140      -0.00055416      -0.00246385      -0.01119649
Ti       3.17837825       5.41020555      10.49605245      -0.00505552       0.00103347      -0.00100620
Ti       2.68502712       1.34186536      10.51154534       0.00227852      -0.00353127      -0.00192528
Ti       5.89178696       5.20040038      11.44726143      -0.00020309       0.00125890       0.00022481
Ti       5.57138363       1.03584874      11.46108205       0.00141753       0.00188312      -0.00065266
Ti       0.58844664       0.91797225      12.39303785      -0.00237034       0.00671321      -0.00987649
Ti       3.85195698       3.38048919      12.37619964       0.00283526       0.00223088      -0.00670482
Ti       3.30397449       0.65320936      13.19621580      -0.00078351       0.00505262       0.00289736
Ti       6.69389595       3.04721020      13.17997590       0.00355159      -0.00002434       0.00441965
Ti       5.08861503       5.36582851      14.29389349       0.00312145       0.00275851       0.00262473
Ti       6.10737005       0.42582338      14.30926670       0.00352556       0.00479733       0.00624478
Ti       4.53807041       2.64900678      14.98748213       0.00206109       0.00695495      -0.00242146
Ti       4.02820844      -1.41317629      15.00210877       0.00641344       0.00578511      -0.00375725
Ti       7.15860551       2.52389306      15.92481901       0.00064574       0.00723253      -0.00023925
Ti       2.61188541       0.79750265      15.94147692       0.00890475       0.00571260      -0.00281652
Ti       5.74123306       4.82085005      17.17220987       0.00512235       0.00245739       0.00111503
Ti       5.30200097       0.72335942      17.18658914       0.00483068       0.00363480      -0.00088839
Ti       3.61631590       2.96557811      17.58229967      -0.00071623       0.01090147       0.00242789
Ti       0.33507724       0.51328059      17.59954238       0.00566779       0.00229597       0.00086754
Ti       2.88163814       0.54767846      18.74519209       0.00971087      -0.00379177      -0.00059571
Ti       6.79721818       2.63572456      18.72557165      -0.00230372       0.00437972       0.00085720
Ti       4.93705464       5.24076545      20.03671599      -0.00758278       0.00420979       0.00324771
Ti       1.63885674       2.79534180      20.06369202       0.01015631      -0.00160242      -0.00340011
Ti       4.39384560       2.46800319      20.21915477       0.00419618      -0.00365016      -0.00048158
Ti       3.93066428      -1.62711936      20.24287979      -0.00711038       0.00093391       0.00285614
Ti       6.90343231       2.55825745      21.51207395      -0.00663728      -0.00213469      -0.00195243
Ti       2.76605499       0.59846442      21.51801240      -0.00295728      -0.00109012       0.00125727
Ti       3.57935223       2.95212596      22.91912614       0.00319081       0.00298143      -0.00302391
Ti       0.30165482       0.43608362      22.92918408      -0.00210889      -0.00257736      -0.00191477
Ti       5.75545282       4.73249186      22.90764966       0.00507750      -0.00475393      -0.00147022
Ti       5.27223739       0.72365568      22.92794666      -0.00293501       0.00314133       0.00109742
Ti       2.76928622       0.59665929      24.27268737       0.00271463      -0.00179988       0.00001084
V        6.90291101       2.55777772      24.24366776       0.00246624       0.00815983      -0.00356235
Ti       3.90312109      -1.64322240      25.52898380      -0.00222856      -0.00316508       0.00068582
Ti       4.45989861       2.47161771      25.50108365       0.00416837       0.00714304      -0.00022365
Ti       1.68233041       2.81249207      25.68141231       0.00299403      -0.00188307      -0.00624837
Ti       4.89261198       5.24623672      25.65632035      -0.00385773      -0.00020750       0.00806211
Ti       2.92351506       0.54781575      27.04019242      -0.00171631      -0.00138962       0.00154366
Ti       6.81614110       2.64954139      27.01809594      -0.00237589      -0.00365215       0.00183234
Ti       0.36829906       0.52567681      28.14740585       0.00299186      -0.00795683       0.00389353
Ti       3.66534425       2.98686482      28.14107634      -0.00562462       0.01489364       0.00273033
Ti       5.35593275       0.72958351      28.57728154      -0.00212422       0.00890642      -0.00795931
Ti       5.76531633       4.84411603      28.55497170       0.01407275       0.00451177      -0.00200822
Ti       7.22235527       2.53963437      29.80951073      -0.00084246       0.00319617       0.00327879
Ti       2.62534324       0.83961694      29.82045518       0.00883060       0.00990132      -0.00080942
Ti       4.58636697       2.69266364      30.72548997      -0.00012771       0.00050443       0.00225879
Ti       4.08036045      -1.36127254      30.74029542       0.00090556       0.00763176       0.00750081
Ti       6.14639590       0.47305352      31.45703497      -0.00017886       0.00095778      -0.00773394
Ti       5.14604531       5.40263992      31.44016181       0.00543468      -0.00063164      -0.00872850
Ti       3.36452478       0.69639211      32.55362984      -0.00039857       0.00402414       0.00507328
Ti       6.72276716       3.11073554      32.54098797       0.00673948       0.00085692      -0.00033817
Ti       3.91301178       3.44121148      33.33777426       0.00348982       0.00048410       0.00674432
Ti       0.63072165       0.97890782      33.35552662      -0.00076538       0.00800192       0.00372635
Ti       5.93761360       5.26508988      34.29739386      -0.00046020      -0.00163322      -0.00173904
Ti       5.62245954       1.09284008      34.31094312      -0.00187642       0.00168006       0.00145103
Ti       3.23108566       5.47206894      35.20538416      -0.00128450      -0.00101118      -0.00387000
Ti       2.73075006       1.41696230      35.21864817      -0.00091860      -0.00265574      -0.00110742
Ti       4.80847263       3.25845112      36.02125457      -0.00759756       0.00345109       0.00745407
Ti       4.45190833      -0.88529180      36.03914166       0.00210792      -0.00360417       0.00145521
Ti       6.41444073       0.93558661      37.17060790      -0.00370638      -0.00529702       0.00269410
Ti       1.62745996      -0.65215953      37.18509544      -0.00420987      -0.00675979       0.00257624
Ti       6.97431741       3.66124034      37.80342005      -0.00177329      -0.00678697      -0.00382998
Ti       3.70621351       1.19207227      37.82042599      -0.00520248      -0.00422023      -0.00627100
Ti       4.36665475       3.76140346      38.77234916      -0.00184696      -0.00567224       0.00993686
Ti       5.09791228      -1.01245234      38.79063139      -0.00192358      -0.00379802       0.00797710
Ti       5.74539769       1.47741319      40.05426925      -0.00189046      -0.00249604       0.00699395
Ti       2.42477315      -0.95637229      40.07130894       0.00227952      -0.00596617       0.00688306
Ti       3.45018549       5.88685469      40.39914917      -0.00189248      -0.00338207       0.00654407
Ti       2.96726796       1.81845886      40.41518488      -0.00274215      -0.00833922       0.00534016
Ti       4.67667421       3.67019387      41.58123370      -0.00416994      -0.00145225       0.00385326
Ti       4.85757394      -0.78596458      41.59605914       0.00304668      -0.00404911       0.00646359
Ti       2.13042430       3.60841961      42.92228468       0.00016837       0.00103794       0.00772033
Ti       1.64995385      -0.46543374      42.93783928       0.00352761      -0.00056310       0.00708662
Ti       7.09347343       3.83807536      43.04698645       0.00032451       0.00096350       0.00050091
Ti       3.79431074       1.39211810      43.06220377       0.00042418      -0.00459331       0.00336533
Ti       4.60006503       3.73418641      44.37046384      -0.00003893       0.00196987       0.00371865
Ti       4.95153350      -0.81919593      44.38585257       0.00152897       0.00027698       0.00491980
Ti       3.46728490       5.94147250      45.73730263      -0.00084466       0.00065683      -0.00013027
Ti       3.00356034       1.85862078      45.75309784      -0.00224577      -0.00346528      -0.00044685
