52
Lattice="5.088765 0.0 0.0 0.0 5.495746 0.0 0.0 0.0 32.722931" Properties=species:S:1:pos:R:3:forces:R:3 job_name=Segregation-1sol-C1-Al-Al-32-d-3.83 top_level=Segregation-1sol solute=Al energy=-399.02794222 stress_kbar_3x3="_JSON [[-37.95829201, 0.2300743, -0.24106678], [0.23007431, -29.41567593, 0.14552176], [-0.2410668, 0.14552176, -18.5763668]]" pbc="T T T"
Ti       2.61754377       0.79505551      32.71517052      -0.00531375       0.00044460      -0.00185966
Ti       0.03146545       1.59888836       1.37248718      -0.00148458       0.00015413      -0.00218681
Ti       0.81928442       4.34581572       1.37369056      -0.00313578       0.00031664       0.00180575
Ti       2.56981915       2.35867601       2.58685148      -0.00001559      -0.00083424      -0.00043472
Ti       3.36558982       5.10581493       2.58541436      -0.00339038      -0.00074751      -0.00284833
Ti       0.81153432       0.38891969       3.83037319      -0.00173791      -0.00223130       0.00133542
Ti       0.03377705       3.13614994       3.83160292      -0.00125249      -0.00083722       0.00117573
Ti       3.37018269       1.18274539       5.07408784       0.00017545      -0.00001271       0.00409226
Ti       2.56271358       3.93068197       5.07237720      -0.00315393       0.00047114       0.00157391
Ti       0.01154175       4.70306872       6.31471184       0.00006832       0.00196997      -0.00245437
Ti       0.83500871       1.95459847       6.31848938      -0.00171926       0.00154114      -0.00310869
Ti       3.37203111       2.73823324       7.55836834      -0.00427654       0.00062662      -0.00116729
Ti       2.56151872       5.48531101       7.56401553      -0.00073349       0.00121510       0.00064011
Ti       0.82340808       3.53821609       8.80760751      -0.00413298      -0.00264187      -0.00273969
Ti       0.01056115       0.79177321       8.81004209      -0.00307476      -0.00085954      -0.00227016
Ti       2.55260057       1.57347767      10.04959960      -0.00172087      -0.00110957      -0.00260309
Ti       3.37649607       4.31565905      10.05658812      -0.00092998      -0.00231030      -0.00103564
Ti       0.82403671       5.09246518      11.28746097       0.00254628      -0.00314070       0.00256098
Ti       0.02349020       2.34468163      11.30477322       0.00152291      -0.00260184       0.00153499
Ti       3.34498284       0.39333518      12.53045925       0.00205231      -0.00200667       0.00353229
Ti       2.56680170       3.14201751      12.55073803      -0.00008357      -0.00069545       0.00658603
Ti       0.01610840       3.91687917      13.77179821       0.00176647      -0.00402475      -0.00063016
Ti       0.81185794       1.16310960      13.79082032       0.00149797       0.00128188      -0.00173793
Ti       2.60479809       4.67225568      15.00733639       0.00684483      -0.00859197       0.00316228
Ti       3.36621335       1.92008287      14.98077349      -0.00234379      -0.00312190      -0.00259113
Ti       0.75715634       2.74883405      16.33703841      -0.00213750      -0.00475925      -0.00407604
Ti       0.08076549       0.00427455      16.42441905       0.00127658       0.00286490      -0.00322486
Ti       3.37339759       1.93045967      17.75079503       0.01101932      -0.00366476       0.00388367
Ti       2.56213156       4.67905779      17.77651638      -0.00006547       0.00096867       0.01124674
Ti       0.06221588       3.93815345      18.98997422      -0.00234751       0.00904478       0.00752634
Ti       0.88262656       1.20820019      18.93415651       0.00902725       0.00709254      -0.00481232
Ti       3.35683641       0.38990472      20.19359420      -0.00209420       0.00299504       0.00585861
Al       2.60467774       3.13211277      20.19676495       0.00701299       0.00661944      -0.00054725
Ti       0.91322254       5.05965827      21.46998310       0.01277175      -0.00334225       0.00374493
Ti       0.04456826       2.32998684      21.41101268      -0.00379420      -0.00122656      -0.00920132
Ti       2.54340687       1.58270651      22.64199594       0.00004063       0.00419002      -0.00879496
Ti       3.42487220       4.33864447      22.64127717       0.00117513       0.00056895      -0.01149942
Ti       0.00226567       0.80044750      23.90564370      -0.00649855      -0.00636135       0.00261076
Ti       0.79280961       3.53715614      23.92998055      -0.00020619      -0.00059077       0.00500345
Ti       3.35703189       2.73402123      25.16837272       0.00000267      -0.00163244       0.00288117
Ti       2.55251006       5.47822515      25.12702708       0.00460703       0.00401165      -0.00819989
Ti       0.83189944       1.95643892      26.39897411       0.00021231      -0.00246927       0.00869433
Ti      -0.00235460       4.71336172      26.39541383       0.00301408       0.00405933       0.00082184
Ti       2.55084446       3.93744487      27.63767396       0.00035598       0.00121926      -0.00633366
Ti       3.35170904       1.18412316      27.62836122       0.00050059       0.00274657      -0.00078183
Ti       0.79757770       0.38311622      28.88824314      -0.00268941      -0.00618741       0.00329510
Ti       0.02238891       3.13170735      28.87900295       0.00050355       0.00481698       0.00128058
Ti       2.55970587       2.35964181      30.12523780      -0.00005740       0.00253486       0.00269829
Ti       3.36433123       5.10371485      30.12146799      -0.00560327      -0.00028633       0.00249340
Ti       0.80499510       4.35072468      31.33717268      -0.00292803      -0.00040103       0.00408882
Ti       0.02227830       1.60482852      31.33986795       0.00088122       0.00036663      -0.00159646
Ti       3.31093841       3.53979363       0.00060113      -0.00195427       0.00456812      -0.00739210
