52
Lattice="4.6568 0.0 0.0 0.0 7.770572 0.0 0.0 0.0 25.044546" Properties=species:S:1:pos:R:3:forces:R:3 job_name=Segregation-1sol-CSL7-V-V-37-d-5.94 top_level=Segregation-1sol solute=V energy=-401.30113409 stress_kbar_3x3="_JSON [[-18.82337824, -0.01838072, 0.17990099], [-0.01838074, -26.23115896, 0.18749212], [0.17990098, 0.18749212, -22.85855498]]" pbc="T T T"
Ti       1.82023450       7.39370021       0.69203928       0.00698030       0.00235414      -0.00202119
Ti       4.63288448       5.59792619       1.35079679      -0.00283634      -0.00324539      -0.00167818
Ti       2.45417429       2.27437147       1.60517679       0.00697896       0.00176777      -0.00152991
Ti       4.56541837       0.62162890       2.06268764      -0.00081622       0.00018194       0.00658447
Ti       2.35927516       5.01184169       2.81617209      -0.00354168      -0.00204787       0.00382707
Ti       0.02324188       3.33595116       3.00303031       0.00177868      -0.00418775       0.00460350
Ti       2.30877916       0.01311417       3.63915466       0.00403966       0.00109148       0.00407461
Ti       0.02930309       6.10532313       4.08276031       0.00151610      -0.00045400       0.00567744
Ti       2.34138620       2.76687529       4.59433596      -0.00059765       0.00076855       0.00427902
Ti       0.00462980       1.11771780       4.98881694       0.00123222       0.00051932       0.00299447
Ti       2.34587386       5.57012465       5.61166052       0.00366358      -0.00114698       0.00380548
Ti       0.00825272       3.87324136       5.94602999       0.00162668      -0.00074013       0.00069442
Ti       2.33582161       0.56666973       6.57765522       0.00321960       0.00150991       0.00101752
Ti       0.01659054       6.64095538       6.91263092       0.00296474       0.00152922       0.00036078
Ti       2.33259205       3.32317091       7.53358335       0.00146431      -0.00209669       0.00172682
Ti       0.01129146       1.67346771       7.93132807      -0.00132166      -0.00090606      -0.00474358
Ti       2.35744657       6.10640137       8.44303489       0.00142195      -0.00190107      -0.00521565
Ti       4.63779847       4.42645718       8.88342428      -0.00022592      -0.00208068      -0.00207886
Ti       2.35109534       1.10265342       9.52144021       0.00451184      -0.00146799      -0.00461533
Ti       0.02679254       7.19956315       9.71009988      -0.00338770      -0.00140572      -0.00155912
Ti       2.23545616       3.81558600      10.45502608       0.00285471      -0.00581301      -0.00251661
Ti       0.12713298       2.16323216      10.92675870       0.00091015       0.00091497      -0.00591892
Ti       2.29996490       6.60992713      11.17201879      -0.00025393       0.00719176      -0.00173301
Ti       4.14288509       4.81460782      11.83027374       0.00208875      -0.00243327       0.00764642
Ti       2.69896917       1.63870324      12.54510246       0.00248496      -0.01460764       0.00285165
Ti       0.37542717       7.64262630      12.54370877      -0.00126950      -0.00768422       0.00210995
Ti       1.26530481       4.80959128      13.24867703      -0.00718401      -0.00248893      -0.01100028
Ti       3.10939940       6.59761326      13.91686236       0.00603886       0.00111668       0.00599036
Ti       0.61937148       2.16633936      14.16296028      -0.00626240       0.00017599       0.00259453
Ti       3.17075197       3.81024552      14.62776889      -0.00027135       0.00214313       0.00014065
Ti       0.71963328       7.19536527      15.35631234       0.00499940      -0.00880175      -0.00097927
Ti       3.04602046       1.08908968      15.56760877      -0.00508974       0.00470212       0.00676566
Ti       0.77899110       4.42773756      16.18963892       0.00225697      -0.00907491       0.01224849
Ti       3.05162355       6.11913713      16.64816668      -0.00941830       0.00546433       0.01323212
Ti       0.74152833       1.65648485      17.16640499       0.00197960      -0.00311055       0.00683542
Ti       3.07716799       3.28460821      17.53658754      -0.00385559      -0.00954428       0.00847747
Ti       0.73969132       6.70999269      18.15545314      -0.00566614       0.01018707       0.00518939
V        3.07819568       0.56183190      18.45254017      -0.00019494       0.00207117       0.00053085
Ti       0.74344768       3.91655150      19.09436243      -0.00303396       0.01180695       0.00042073
Ti       3.06058673       5.59752736      19.41798138      -0.00218361       0.00642294      -0.00235510
Ti       0.75073458       1.11817911      19.98154568      -0.00063584       0.00800831      -0.00729624
Ti       3.07027011       2.75836036      20.40511835       0.00042262       0.00739520      -0.01289400
Ti       0.71704096       6.11369996      20.96461082      -0.00150474      -0.00468721      -0.00376557
Ti       3.10304241       0.02639285      21.34299142       0.00235423       0.00141942      -0.00782397
Ti       0.73043170       3.32908315      22.01225125      -0.00389724      -0.01148015      -0.00566062
Ti       3.05156863       5.00559424      22.19142936       0.00381958      -0.01320111      -0.00519054
Ti       0.84895025       0.62621709      22.93256740      -0.01063909       0.00432586      -0.01236795
Ti       2.95274950       2.27090455      23.40773167      -0.00202934      -0.00001405      -0.00477356
Ti       0.78185913       5.59333223      23.66293577       0.00183941       0.00000921      -0.00511577
Ti       3.59388775       7.38624211      24.29986422      -0.00070639       0.00768395      -0.00237444
Ti       0.37456127       2.79148255      25.02638073       0.00077725       0.00771664       0.00297502
Ti       2.70136328       4.56320135      25.03012410       0.00259814       0.01614335      -0.00244667
