64
Lattice="5.872 0.0 0.0 0.0 6.890708 0.0 0.0 0.0 27.394398" Properties=species:S:1:pos:R:3:forces:R:3 job_name=Segregation-1sol-T1g-Al-Al-45-d-5.32 top_level=Segregation-1sol solute=Al energy=-491.97473964 stress_kbar_3x3="_JSON [[-12.06182746, -0.00049578, 0.00054461], [-0.00049579, -12.67238798, -0.34736234], [0.00054458, -0.34736232, -17.03767862]]" pbc="T T T"
Ti       4.40004332       5.21006726      27.39181136       0.00098057      -0.00476796       0.01074984
Ti       1.47193681       5.21001098      27.39183369      -0.00099259      -0.00470620       0.01066603
Ti       5.87195109       3.18864653       1.28541978      -0.00008722      -0.00235727       0.00130908
Ti       2.93609464       3.18254687       1.27730753      -0.00020538       0.00119688      -0.00420236
Ti       0.00006402       6.63483713       1.90100273      -0.00005571      -0.00037635      -0.00424108
Ti       2.93590434       6.63737898       1.90022368       0.00008652      -0.00281392      -0.00362203
Ti       4.40469040       1.76833503       3.18875571       0.00045917      -0.00160619      -0.00578437
Ti       1.46725779       1.76836338       3.18873865      -0.00048541      -0.00152526      -0.00567058
Ti       1.46771600       4.59830669       3.40139409      -0.00038534       0.00301267      -0.00962517
Ti       4.40422415       4.59831603       3.40141523       0.00047037       0.00288012      -0.00964072
Ti       5.87197411       6.72507128       4.71610158      -0.00002809      -0.00255657      -0.00708456
Ti       2.93593494       6.72457811       4.71479759       0.00006477      -0.00394201      -0.00694611
Ti       2.93596048       2.87694342       5.32290629      -0.00004807       0.00059095      -0.00840092
Ti       5.87191631       2.87811731       5.32505731       0.00014768      -0.00058239      -0.00439137
Ti       4.40378879       5.00597581       6.48155968       0.00125012       0.00224097      -0.00275082
Ti       1.46809294       5.00597535       6.48157289      -0.00111459       0.00218760      -0.00282840
Ti       4.40427511       0.93366490       6.95879457       0.00135683      -0.00136915      -0.00401679
Ti       1.46758003       0.93365720       6.95881107      -0.00117556      -0.00120133      -0.00412057
Ti       2.93596309       3.09283399       8.13783774      -0.00003908       0.00597782       0.00126830
Ti       5.87193842       3.09048048       8.14278738       0.00006419       0.00658943       0.00114108
Ti       2.93595017       6.02720549       8.73834968       0.00001191      -0.00355491      -0.00641893
Ti       5.87194780       6.02631010       8.74206823       0.00003012      -0.00206091       0.00327709
Ti       4.40027477       1.29463374       9.92515381       0.00402141       0.00456583       0.00294460
Ti       1.47173763       1.29462524       9.92516162      -0.00401548       0.00469134       0.00294019
Ti       4.40297630       4.11024882      10.39847248       0.00572886       0.00117713       0.00394664
Ti       1.46896684       4.11025423      10.39844543      -0.00564777       0.00105237       0.00401898
Ti       2.93600804       6.24447602      11.55255993      -0.00005249      -0.00064518       0.00645169
Ti       0.00005482       6.23983703      11.55958735       0.00000896      -0.00030762       0.00931816
Ti       2.93607232       2.39326965      12.18186133      -0.00013964       0.00697548       0.00912812
Ti       0.00002172       2.39292054      12.15237806       0.00002567       0.00695636       0.00366301
Ti       1.47611237       4.52957065      13.48411885      -0.00013294      -0.00251301       0.00975514
Ti       4.39609921       4.52958533      13.48417218       0.00011253      -0.00255777       0.00959594
Ti       4.38383757       0.45541059      13.69133144      -0.00170826      -0.00036178       0.00955182
Ti       1.48829779       0.45545231      13.69133468       0.00155924      -0.00040444       0.00955868
Ti       0.00001597       2.49438979      14.93867141       0.00005778      -0.00129371      -0.00971994
Ti       2.93618614       2.48184986      14.99745721      -0.00007858       0.00536789       0.00214468
Ti       0.00018615       5.91657158      15.59903186      -0.00010025       0.00474604      -0.01730926
Ti       2.93601647       5.92359373      15.61559677      -0.00001250      -0.00224875       0.00210477
Ti       4.45359937       3.88285091      16.89376688      -0.00629887       0.00143300      -0.00397179
Ti       1.41852753       3.88278932      16.89378270       0.00632055       0.00151510      -0.00402381
Ti       4.42536883       1.10533156      17.11724928      -0.00369073      -0.00095725      -0.00343163
Ti       1.44691334       1.10533794      17.11724531       0.00369306      -0.00095309      -0.00343800
Ti       0.00009774       5.73437192      18.41529322      -0.00014111      -0.00135929       0.00255778
Ti       2.93604493       5.86974356      18.41247033      -0.00001167      -0.00109435       0.00092301
Ti       2.93603627       2.84137883      19.07257684       0.00003792       0.00634503       0.00290973
Al       0.00001998       2.83208251      19.02912904       0.00002950       0.00994471       0.00025525
Ti       4.42684430       0.68537048      20.17772753      -0.00479189       0.00075278       0.00420574
Ti       1.44513991       0.68535595      20.17772792       0.00486710       0.00070039       0.00417317
Ti       1.47734093       4.72707644      20.65848005       0.00347500      -0.00496523      -0.00352200
Ti       4.39470610       4.72709857      20.65847669      -0.00341747      -0.00502634      -0.00352908
Ti       2.93599092       2.57391926      21.91179595       0.00005054       0.00018684      -0.00480855
Ti       5.87199384       2.55581640      21.82312977      -0.00002900       0.00048775      -0.00408215
Ti       2.93599283       6.52329322      22.42517736      -0.00000661       0.00024311      -0.00110519
Ti       5.87199615       6.56214027      22.40379737      -0.00000725      -0.00042894      -0.00023335
Ti       4.42153276       4.37588440      23.62192634      -0.00219474      -0.00026697      -0.00158318
Ti       1.45044068       4.37587591      23.62192504       0.00220675      -0.00026250      -0.00156347
Ti       4.42080953       1.54386233      24.10103292      -0.00455330      -0.00216534      -0.00272668
Ti       1.45115407       1.54385693      24.10104084       0.00468578      -0.00210292      -0.00270096
Ti       2.93596508       6.31415385      25.25787294       0.00002282      -0.00541496       0.00162789
Ti       0.00001198       6.31261472      25.25404840      -0.00001540      -0.00596679       0.00777428
Ti       5.87197050       3.27838882      25.86812514       0.00005636       0.00001939       0.00528307
Ti       2.93602354       3.27315975      25.85023782      -0.00007480       0.00232078       0.00860481
Ti       1.46851132       1.14989195      27.17257202      -0.00111139      -0.00478116       0.00279248
Ti       4.40354463       1.14989218      27.17257269       0.00096714      -0.00465992       0.00285274
