52
Lattice="4.6568 0.0 0.0 0.0 7.770572 0.0 0.0 0.0 25.044546" Properties=species:S:1:pos:R:3:forces:R:3 job_name=Segregation-1sol-CSL7-Al-Al-32-d-3.65 top_level=Segregation-1sol solute=Al energy=-397.43035289 stress_kbar_3x3="_JSON [[-15.18399772, 0.64228968, 0.63295033], [0.64228967, -26.16495629, -0.38590251], [0.63295032, -0.38590252, -18.22725192]]" pbc="T T T"
Ti       1.81375406       7.39364331       0.70640758      -0.00436158       0.00672105       0.00005742
Ti       4.63000876       5.59987992       1.36409873       0.00552418       0.00474835       0.00420902
Ti       2.45627066       2.27300678       1.61280969       0.00085706       0.00372767      -0.00388206
Ti       4.56513518       0.62519330       2.07628578       0.00502796      -0.00014304      -0.00206813
Ti       2.35774467       5.00599797       2.82242577       0.00080393       0.00145009      -0.00019320
Ti       0.02327117       3.33561923       3.01076599       0.00350954       0.00459382      -0.00175302
Ti       2.30688996       0.01058485       3.64634483       0.00175239      -0.00037476      -0.00144472
Ti       0.02929573       6.10342297       4.08661303       0.00248424       0.00109602      -0.00296846
Ti       2.33849085       2.76352468       4.59945635       0.00304023       0.00156956      -0.00062852
Ti       0.00047832       1.11718822       4.99105188       0.00195342       0.00066109       0.00121936
Ti       2.34730942       5.56764303       5.61127429       0.00429005       0.00299379      -0.00188497
Ti       0.00800046       3.87415644       5.94767398       0.00279227      -0.00224398      -0.00197903
Ti       2.33367008       0.56706748       6.57608269       0.00282908       0.00191190      -0.00486853
Ti       0.01807731       6.64017232       6.90656727       0.00221098       0.00111898      -0.00101739
Ti       2.33242893       3.32320772       7.52971091       0.00141315       0.00344940       0.00086453
Ti       0.01149302       1.67645617       7.92099243       0.00150603       0.00162864      -0.00217512
Ti       2.35761917       6.10609649       8.42868435       0.00101441       0.00087571      -0.00252583
Ti       4.63407470       4.42583781       8.88168530       0.00113069       0.00045815       0.00497633
Ti       2.34745782       1.11979314       9.50235304      -0.00073122       0.00717156      -0.00039843
Ti       0.03383915       7.20334403       9.69345825       0.00169103      -0.00145223      -0.00116677
Ti       2.22769454       3.82306411      10.45597700      -0.00737513      -0.00312694       0.00278005
Ti       0.12467175       2.16241510      10.91237141       0.00292336       0.00691520      -0.00334487
Ti       2.32172529       6.63146138      11.13679656      -0.00001240       0.00973595       0.00466865
Ti       4.12422837       4.80132016      11.83802649      -0.00772476      -0.00039481       0.00452138
Ti       2.69297398       1.69724625      12.54017885      -0.00098219       0.00710207       0.00142298
Ti       0.40125541       7.64734524      12.52309313       0.00237987      -0.00841908       0.00197764
Ti       1.23098603       4.86223572      13.31585306      -0.00352991      -0.00598194       0.01289360
Ti       3.06370549       6.69382576      13.80823282      -0.01529326       0.00613348      -0.00669795
Ti       0.59718713       2.17536258      14.16665108      -0.01430378       0.00220530       0.00394818
Ti       3.14544109       3.81402203      14.69462480       0.00430870      -0.00644549       0.00528479
Ti       0.74692408       7.13389103      15.31820047      -0.00740213      -0.01835039       0.00068496
Ti       3.07195436       1.02895228      15.53305831      -0.00358348      -0.00786310       0.00104613
Al       0.77769350       4.39261393      16.19422675      -0.00353266      -0.01289260       0.00386352
Ti       3.06453110       6.01365023      16.60088075       0.00297621      -0.00808321      -0.00300938
Ti       0.73373780       1.67142424      17.09244928      -0.00390249      -0.00788900       0.00162107
Ti       3.09481456       3.32845745      17.49607249       0.00288354      -0.01633768       0.01056166
Ti       0.74259785       6.60307454      18.11241952      -0.00084549      -0.00893107      -0.00348938
Ti       3.06788764       0.54700413      18.44435196      -0.00026597      -0.00400801       0.00182351
Ti       0.75731703       3.90676352      19.08088223       0.00084259      -0.00191868       0.00185261
Ti       3.07616935       5.60310641      19.45966890       0.00070825      -0.00195368       0.00542002
Ti       0.74502236       1.11936713      20.02841125       0.00058339      -0.00164369      -0.00616205
Ti       3.07311121       2.77527566      20.42204460       0.00083741      -0.00003557       0.00183475
Ti       0.73457391       6.12870822      20.96143959      -0.00038699       0.00208683       0.00125471
Ti       3.11342377       0.03296899      21.41063222       0.00374465       0.00082771      -0.00158158
Ti       0.72821293       3.33575797      22.01649191      -0.00004767       0.00802197      -0.00222025
Ti       3.05390061       5.01318966      22.22241074      -0.00056166       0.00288672      -0.00492835
Ti       0.85003555       0.62668462      22.95515826      -0.00548762      -0.00065104      -0.00047145
Ti       2.95109632       2.27521302      23.42779666       0.00556031       0.00872027       0.00431170
Ti       0.77966265       5.59308390      23.67827868      -0.00138760       0.00747092      -0.00535204
Ti       3.59366034       7.39503042      24.33387643       0.00946531       0.00784598      -0.00920239
Ti       0.38086530       2.79933624      25.03836699       0.00123670       0.00650805      -0.00132071
Ti       2.70852021       4.56695485      25.04395697      -0.00056289      -0.00149623      -0.00636399
