100
Lattice="4.4265 -2.555641 0.0 3.767997 6.526363 -0.031456 0.0 0.0 45.781652" Properties=species:S:1:pos:R:3:forces:R:3 job_name=Segregation-1sol-CSL13-V-V-57-d-2.88 top_level=Segregation-1sol solute=V energy=-775.40349212 stress_kbar_3x3="_JSON [[-38.88053612, -2.22433665, 0.49204073], [-2.22433669, -39.3665759, 0.67009863], [0.49204075, 0.67009862, -17.43408981]]" pbc="T T T"
Ti       2.45913285      -0.93284847       0.00615704       0.00197610       0.00489880      -0.00046850
Ti       5.74965424       1.51792675      -0.01008069       0.00464798       0.00334245       0.00059137
Ti       4.96521128      -0.83625545       1.38325778      -0.00057411      -0.00011758      -0.00122857
Ti       4.57971583       3.73719279       1.36763374       0.00191181      -0.00130499      -0.00135666
Ti       7.08660481       3.82870854       2.64025488      -0.00234913       0.00050099       0.00008879
Ti       3.79049190       1.38043616       2.65617597       0.00295352      -0.00113389      -0.00027531
Ti       1.64540831      -0.47508844       2.86710391       0.00013634      -0.00129230      -0.00170982
Ti       2.12567831       3.59872847       2.85111842      -0.00083377      -0.00033893       0.00007672
Ti       4.70321463       3.63221262       4.16408705      -0.00173071      -0.00279736      -0.00353611
Ti       4.81219167      -0.78187440       4.17953812      -0.00377147      -0.00039502      -0.00187094
Ti       3.43315168       5.85161447       5.26762436      -0.00075509      -0.00383815      -0.00050925
Ti       2.94195659       1.78418178       5.28278578       0.00076999      -0.00136371       0.00195091
Ti       2.39749142      -0.97716855       5.74742080      -0.00133793      -0.00407396      -0.00348068
Ti       5.74046687       1.44355992       5.73191701      -0.00153826      -0.00405309      -0.00338353
Ti       4.28251767       3.74328520       6.95891950      -0.00176020      -0.00491476      -0.00017297
Ti       5.11821820      -1.09043377       6.97475736      -0.00007297      -0.00416641      -0.00320220
Ti       6.92382645       3.58606563       7.86425903      -0.00524432      -0.00369180      -0.00462796
Ti       3.66121882       1.11738428       7.87933673      -0.00184689      -0.00036736      -0.00109111
Ti       6.36921174       0.87941530       8.60852419      -0.00187196      -0.00191783      -0.00823338
Ti       1.59495789      -0.71504781       8.62384975      -0.00077151      -0.00269551      -0.00283533
Ti       4.78616166       3.17336924       9.69127486       0.00042058       0.00107681      -0.00113127
Ti       4.37432616      -0.93887018       9.70646243       0.00787569      -0.00283270      -0.00399690
Ti       3.17231722       5.40149169      10.48507616       0.00322170       0.00306250      -0.00332742
Ti       2.68547652       1.33338274      10.50177951       0.00225954       0.00166573      -0.00903162
Ti       5.89356682       5.19299646      11.44296167      -0.00006953       0.00227632      -0.00173469
Ti       5.57261690       1.02683962      11.45949024      -0.00004240       0.00249338      -0.00097916
Ti       0.58898327       0.90705695      12.37353476       0.00151636       0.00419774       0.00392083
Ti       3.85661740       3.37493153      12.36210498       0.00145455       0.00140192      -0.01023848
Ti       3.30054142       0.65357074      13.18672027      -0.00122433       0.00200276      -0.00541373
Ti       6.70519187       3.03701758      13.17066889       0.00729864       0.00870005      -0.00326016
Ti       5.10135770       5.36420640      14.29638545       0.00054915       0.00743883       0.00109337
Ti       6.12074477       0.42486044      14.31069064       0.00231351       0.00159547       0.00188549
Ti       4.54722697       2.64535740      14.96732726      -0.00380113       0.01057191       0.00074035
Ti       4.04462145      -1.41603881      14.97942978       0.00050038       0.01414664       0.00133811
Ti       7.16263035       2.53814068      15.91530411       0.00565760       0.00944229       0.00162822
Ti       2.64312421       0.79692939      15.93317079       0.00837035       0.00454091       0.00294798
Ti       5.76933165       4.83583483      17.17510627       0.00212823       0.00572763       0.00168758
Ti       5.32575633       0.73705126      17.18824005      -0.00296825      -0.00010500       0.00588733
Ti       3.64259636       2.98348221      17.56452241      -0.00545360       0.00500931      -0.00055217
Ti       0.35910703       0.52528628      17.57768741      -0.00529097       0.01198697      -0.00505348
Ti       2.90014872       0.57305462      18.73450727       0.00937588       0.00177288      -0.00352195
Ti       6.83184938       2.65633606      18.71437828       0.00104633      -0.00268180       0.00253196
Ti       4.95889739       5.27319315      20.03625910       0.00999740      -0.00186380       0.00079599
Ti       1.67330592       2.82218623      20.04810482      -0.00507485      -0.00291674      -0.00561535
Ti       4.42601561       2.49127434      20.20693063       0.01136711      -0.00621207      -0.01098905
Ti       3.95855065      -1.58811171      20.21992417      -0.00405045      -0.00011465      -0.00838830
Ti       6.93011567       2.60535599      21.49916467      -0.00549827       0.00145905       0.00251460
Ti       2.79152417       0.62681066      21.51919173      -0.00012339      -0.00075831       0.00379059
Ti       3.63698324       2.94924015      22.87469927       0.00786146      -0.00229773       0.00574446
Ti       0.32888392       0.51678092      22.91277542       0.00581259      -0.00362202       0.01561742
Ti       5.76178889       4.81717358      22.91356346       0.00519939       0.00362880       0.00316237
Ti       5.29705553       0.73279711      22.88843576      -0.00489898      -0.00032163      -0.00724536
Ti       2.77950582       0.64314259      24.29385532      -0.00032632       0.00752516       0.00448169
Ti       6.96626083       2.59729257      24.25057927       0.00422664      -0.01114634       0.00400516
Ti       3.92788204      -1.59520422      25.59706630      -0.01509401      -0.00793445      -0.00240022
Ti       4.44585234       2.64961688      25.56453572       0.00136119       0.01330316       0.00615086
Ti       6.04354989       0.31328669      25.70473868       0.00494765       0.00515552       0.00359797
V        4.98315890       5.33874155      25.67018418       0.00021911       0.00323672      -0.00946815
Ti       2.86383238       0.60589975      26.99978118      -0.01065078       0.00764921      -0.00524388
Ti       6.90263898       2.65721369      27.00935729      -0.01692540      -0.00492689       0.00520534
Ti       0.37411208       0.54836704      28.23382251       0.00486832       0.00337132      -0.00002880
Ti       3.65593553       3.00484795      28.20444061       0.00528771      -0.00232951       0.00491819
Ti       5.32301936       0.77196876      28.54236311       0.00120531       0.00769636      -0.00077255
Ti       5.79281911       4.86603881      28.43507018       0.01888575       0.00494932       0.00086066
Ti       7.14103461       2.59141254      29.80636345       0.01012294      -0.00031869      -0.01027677
Ti       2.68739883       0.79892657      29.81509789       0.00316347      -0.00756521      -0.00394334
Ti       4.54690525       2.67313838      30.78669051      -0.00254096       0.00142035       0.00641589
Ti       4.04007258      -1.41079813      30.82781299      -0.00252448      -0.01534468       0.00152410
Ti       6.12170958       0.44923821      31.41067356       0.00334294       0.00348225       0.00019541
Ti       5.10314458       5.39792898      31.38711250      -0.00245426      -0.00040609      -0.00766283
Ti       3.29435355       0.67531492      32.57429588       0.00194422      -0.00295472       0.00393247
Ti       6.73023695       3.04620776      32.56138718       0.00479779       0.00531043       0.00163610
Ti       3.86111659       3.38384118      33.38354210       0.00587254       0.00038260       0.00060236
Ti       0.60335472       0.92797648      33.40765127      -0.00048683       0.00267453       0.00609647
Ti       5.90206374       5.21166878      34.25623495       0.00030292       0.00189238      -0.00218295
Ti       5.59116151       1.04457975      34.28082583      -0.00412941       0.00349410       0.00155013
Ti       3.19285842       5.42100144      35.24281831      -0.00204240       0.00099710       0.00329007
Ti       2.70567812       1.34914835      35.25986338      -0.00292257       0.00253768       0.00778508
Ti       4.81141369       3.19735346      36.04267384      -0.00902426       0.00152359       0.00018805
Ti       4.39340163      -0.91428099      36.06156836       0.00238907      -0.00300774       0.00094321
Ti       6.38932277       0.90731297      37.15047235      -0.00496846      -0.00867441      -0.00014189
Ti       1.62562125      -0.69372864      37.16218170      -0.00270121      -0.00246675       0.00298424
Ti       6.95350324       3.61070733      37.85218552      -0.00284024      -0.00164935       0.00071222
Ti       3.68563781       1.14782925      37.86806432      -0.00449037      -0.00574445       0.00093126
Ti       4.32245860       3.75881436      38.77299794      -0.00537931      -0.00412675       0.00317963
Ti       5.12876039      -1.05805935      38.78936550      -0.01189114      -0.00026130       0.00025785
Ti       5.75711410       1.45997823      40.03542641      -0.00436989      -0.00541089       0.00297651
Ti       2.41371551      -0.96217741      40.05191243      -0.00180356      -0.00910246      -0.00026863
Ti       3.44981106       5.87094189      40.43973977      -0.00331039      -0.00404452       0.00089884
Ti       2.96168743       1.80216916      40.45518597      -0.00090778      -0.00189730       0.00062916
Ti       4.69653498       3.65338027      41.57486751      -0.00002465      -0.00921120       0.00545336
Ti       4.84050238      -0.77956538      41.58888808      -0.00315870      -0.00852686       0.00648354
Ti       2.13175270       3.60344454      42.91225884       0.00055614       0.00125164       0.00103997
Ti       1.65109702      -0.46945267      42.92768150       0.00114888       0.00119720       0.00095120
Ti       7.09394522       3.83484007      43.06445811      -0.00526066      -0.00192176       0.00554436
Ti       3.79667831       1.38676455      43.08149793       0.00130341      -0.00373020       0.00579939
Ti       4.59453364       3.73372467      44.36962157      -0.00045464      -0.00256571       0.00267230
Ti       4.95688861      -0.82676721      44.38549433      -0.00066674      -0.00280284       0.00086127
Ti       3.46618510       5.93411402      45.74503128       0.00322868      -0.00347393      -0.00062744
Ti       2.99866354       1.85301930      45.76085888      -0.00149297       0.00174331      -0.00126986
