52
Lattice="4.6568 0.0 0.0 0.0 7.770572 0.0 0.0 0.0 25.044546" Properties=species:S:1:pos:R:3:forces:R:3 job_name=Segregation-1sol-CSL7-V-V-28-d-1.62 top_level=Segregation-1sol solute=V energy=-401.40366755 stress_kbar_3x3="_JSON [[-19.75477929, 0.33080583, 2.86038768], [0.33080584, -26.04523149, 1.03971783], [2.86038766, 1.03971782, -22.46563705]]" pbc="T T T"
Ti       1.81775402       7.40372393       0.70247239      -0.00535511       0.00135560       0.00727145
Ti       4.63377998       5.60377663       1.36792949      -0.00149034       0.00224303      -0.00486478
Ti       2.45889745       2.28300683       1.61589186       0.00478788      -0.00120285       0.00112489
Ti       4.56849868       0.62761277       2.08274585      -0.00222159       0.00641980       0.00050683
Ti       2.35894123       5.01548084       2.83521668      -0.00113933       0.00397456      -0.00214456
Ti       0.02601038       3.33926368       3.01602235      -0.00456362       0.00154084       0.00524058
Ti       2.31040857       0.01585888       3.65673254      -0.00106493       0.00731414      -0.00109187
Ti       0.02797605       6.10817843       4.09905835       0.00117753       0.00472963       0.00287095
Ti       2.34093890       2.76977707       4.60721468      -0.00553015       0.00561517       0.00360519
Ti       0.00302449       1.12095801       5.00739282      -0.00511902       0.00047312       0.00206663
Ti       2.34309734       5.57686965       5.63296708      -0.00237328       0.00413027      -0.00742462
Ti       0.00732221       3.87658271       5.95643359      -0.00331214      -0.00187843       0.00188339
Ti       2.32691936       0.57353332       6.59825733      -0.00282488       0.00221239      -0.00179151
Ti       0.00954579       6.64585050       6.93200000      -0.00247210      -0.00041831      -0.00272265
Ti       2.32194443       3.33219473       7.54455385      -0.00949760      -0.00742512      -0.00174217
Ti      -0.00101133       1.68242932       7.95049949      -0.00387350      -0.00479110      -0.00452877
Ti       2.34126076       6.11323351       8.47104939      -0.00761519      -0.00473257      -0.00077307
Ti       4.61622493       4.43056136       8.88984415      -0.00831591      -0.00596180       0.00206588
Ti       2.32173050       1.11976672       9.53991054      -0.00613605      -0.01278457      -0.00262489
Ti       0.01542890       7.20637286       9.72161948      -0.00579144      -0.01056464       0.00166920
Ti       2.17972755       3.83406632      10.45840337       0.00096519       0.00232064       0.00429497
Ti       0.06760085       2.16886692      10.94697463      -0.00818564      -0.01115666       0.00649576
Ti       2.27027599       6.63333865      11.21565401      -0.01068299      -0.00699869      -0.00341107
Ti       4.12874530       4.81083423      11.81217411      -0.00794216      -0.01244180      -0.00013534
Ti       2.55021296       1.65088600      12.57658284       0.00575418      -0.00328030      -0.00113059
Ti       0.27593967       7.67270982      12.55665260       0.00026241      -0.00800341       0.00304937
Ti       1.24564779       4.74539209      13.26851046       0.00324354      -0.00257266       0.00742996
Ti       3.15111391       6.48895237      13.92620173      -0.00265919       0.00324941      -0.01029312
V        0.57960205       2.12100973      14.09238764       0.00647644      -0.01234292      -0.01185245
Ti       3.24440029       3.69325701      14.57465263      -0.01007771       0.00983775      -0.00646739
Ti       0.78098284       7.20652238      15.31262977       0.00277148       0.00126725       0.00903019
Ti       3.09911563       1.08064086      15.46843403       0.00152180      -0.00053704       0.00537684
Ti       0.85467220       4.44164738      16.14574337      -0.00881049       0.00182787      -0.00334853
Ti       3.10080170       6.10096261      16.60066338      -0.00477798       0.00725445      -0.01151449
Ti       0.78006876       1.70625398      17.04363404       0.00612939       0.00062396       0.00117350
Ti       3.13099457       3.31966376      17.51823511       0.00548996       0.00362107       0.00847983
Ti       0.75865043       6.65535087      18.10808144       0.00214302       0.00077928      -0.00230400
Ti       3.09645987       0.57318792      18.42920741       0.00694109      -0.00103967      -0.01389343
Ti       0.77268259       3.88271389      19.07355210       0.00236341       0.00409649       0.00099394
Ti       3.07792535       5.57497567      19.41458905       0.00671846       0.00512176       0.00780517
Ti       0.76165012       1.13560840      20.00714197       0.01161952      -0.00418963       0.00566582
Ti       3.08169166       2.77431011      20.43608844       0.00731056       0.00053762       0.00096798
Ti       0.73314375       6.11716185      20.93698710       0.00881396      -0.00068405      -0.00399997
Ti       3.10779241       0.02244995      21.36496561       0.00873440       0.01169067       0.00292224
Ti       0.73456427       3.34825274      22.01152098       0.01100421      -0.00154623       0.00352125
Ti       3.05698632       5.02052170      22.21000628       0.00846634       0.00648988       0.00177103
Ti       0.84675925       0.63186150      22.93648309       0.00114113       0.00258620       0.00544704
Ti       2.95148788       2.28690342      23.42278889       0.00125046       0.00122324       0.00330792
Ti       0.77825086       5.60445298      23.67249513       0.00602376       0.00219839      -0.00182825
Ti       3.59413016       7.40248250      24.32395924       0.00779260       0.00815508      -0.00191257
Ti       0.37646817       2.80201840      25.03875268       0.00232413       0.00170550       0.00258500
Ti       2.70365312       4.57835487       0.00111131       0.00060545      -0.00004259      -0.00682270
