64
Lattice="5.871999 0.0 0.0 0.0 6.890708 0.0 0.0 0.0 27.401158" Properties=species:S:1:pos:R:3:forces:R:3 job_name=Segregation-1sol-T1m-Al-Al-49-d-6.60 top_level=Segregation-1sol solute=Al energy=-492.01090214 stress_kbar_3x3="_JSON [[-10.82642942, 0.00037662, 0.00010821], [0.00037663, -10.75839378, -0.093412], [0.00010821, -0.09341204, -19.30974528]]" pbc="T T T"
Ti       2.93600397       0.11881636      27.39401757      -0.00007579       0.01311306       0.00158357
Ti       2.93604007       2.95160359      27.38764250      -0.00006949      -0.01954456      -0.00237134
Ti       0.00005455       0.10750381      27.39578104      -0.00003714       0.01430368       0.00190436
Ti       0.00003879       2.94505836      27.38442134      -0.00007258      -0.01811812      -0.00166684
Ti       4.39966356       5.03447964       1.40394216       0.00008989      -0.00431821       0.00665912
Ti       1.47238352       5.03444685       1.40393951      -0.00012902      -0.00423258       0.00659405
Ti       4.40875762       1.32314911       2.01832135      -0.00077245       0.01028627      -0.00710845
Ti       1.46326266       1.32315408       2.01833713       0.00085307       0.01038713      -0.00698213
Ti       2.93602379       3.41583782       3.20112670      -0.00008372      -0.00478276       0.00048688
Ti       0.00000014       3.41526696       3.19890519       0.00006577      -0.00493094       0.00117321
Ti       2.93601835       6.23165066       3.61413526       0.00010339       0.00134898       0.00018134
Ti       0.00003330       6.23067101       3.61250927      -0.00006180       0.00140533       0.00174090
Ti       1.46832418       1.49516022       4.83196850       0.00004161       0.00368427      -0.00266662
Ti       4.40372260       1.49515679       4.83198930      -0.00003880       0.00369149      -0.00267892
Ti       1.46867653       4.44157368       5.43604703       0.00020984       0.00093639      -0.00007805
Ti       4.40336438       4.44157756       5.43605063      -0.00022218       0.00098774       0.00000537
Ti       2.93601190       6.59755407       6.59948722       0.00003838       0.00041213       0.00076441
Ti       0.00000428       6.59567267       6.59962779      -0.00002803       0.00051923       0.00070623
Ti       2.93602367       2.52165749       7.10315865      -0.00011207       0.00456758       0.00221542
Ti       0.00001407       2.52112427       7.10106178      -0.00003005       0.00448059       0.00249666
Ti       4.40356894       4.67736976       8.26495778       0.00022868       0.00210140       0.00165998
Ti       1.46845116       4.67738402       8.26497748      -0.00026006       0.00209076       0.00168458
Ti       4.40312971       0.73569370       8.86876237       0.00038554       0.00282400       0.00160701
Ti       1.46885508       0.73569077       8.86877905      -0.00034009       0.00283038       0.00171689
Ti       5.87197415       2.89086652      10.08420398       0.00001542       0.00553708       0.00006278
Ti       2.93596977       2.89144748      10.08846629       0.00002187       0.00408877      -0.00005431
Ti       5.87198845       5.70823045      10.50034528       0.00001859       0.00398300       0.00288161
Ti       2.93599839       5.71124329      10.50418836      -0.00001576       0.00426774       0.00303825
Ti       1.46352594       0.91619701      11.68342310       0.00013481       0.00178689       0.00865391
Ti       4.40843245       0.91620584      11.68346949      -0.00012205       0.00183412       0.00869316
Ti       1.46510174       4.09263926      12.30045155      -0.00036906       0.00042564      -0.00576429
Ti       4.40686191       4.09262084      12.30044458       0.00042122       0.00060153      -0.00575400
Ti       2.93595232       2.12723858      13.71714844       0.00007602      -0.01061688       0.00473598
Ti       0.00001886       2.13396572      13.72858924       0.00000913      -0.00930270       0.00519227
Ti       2.93597942       6.18540822      13.71264641       0.00001119       0.01850710      -0.00088674
Ti       5.87197930       6.18776651      13.69234858      -0.00000714       0.01835629      -0.00122470
Ti       4.39388627       4.10566795      15.12713519       0.00084886       0.00324874       0.00424507
Ti       1.47811357       4.10567712      15.12715205      -0.00083604       0.00329399       0.00424015
Ti       4.39704486       0.91044351      15.74390346      -0.00017059      -0.00668106      -0.00398881
Ti       1.47496416       0.91042371      15.74391297       0.00016285      -0.00656782      -0.00409438
Ti       2.93603082       5.70244676      16.96179120       0.00004763       0.00517497       0.00348921
Ti       0.00002085       5.71922833      16.93811759      -0.00014162       0.00330787       0.00496083
Ti       2.93600024       2.88743613      17.33687667       0.00005223      -0.00237055      -0.00553016
Ti       0.00001065       2.89012295      17.27098098      -0.00002502      -0.00491828       0.00053775
Ti       4.41551669       0.73478083      18.57309159       0.00288027      -0.00460979       0.00186432
Ti       1.45653246       0.73477656      18.57310739      -0.00286783      -0.00453987       0.00218770
Ti       4.38400156       4.64811241      19.13795633       0.00336570       0.00224986       0.00239682
Ti       1.48803468       4.64811585      19.13794433      -0.00348095       0.00200000       0.00298258
Ti       0.00002783       2.47350945      20.27680639       0.00022150      -0.00500984       0.00123231
Al       2.93602098       2.51444288      20.28157704       0.00011213      -0.00404124      -0.00533765
Ti       0.00003952       6.51339306      20.81058739       0.00015463      -0.00531937      -0.00295551
Ti       2.93606973       6.61747528      20.80506471      -0.00017052      -0.00745604       0.00324557
Ti       1.50390540       4.39962516      21.95558841      -0.00057500      -0.00197875      -0.00093229
Ti       4.36815443       4.39962119      21.95561816       0.00054127      -0.00203811      -0.00083171
Ti       1.47623622       1.47992270      22.52585327      -0.00137132      -0.00083945       0.00108922
Ti       4.39582710       1.47993892      22.52587621       0.00149039      -0.00101343       0.00126623
Ti       2.93606291       6.24570044      23.74433801      -0.00010133      -0.00290423      -0.00987305
Ti       0.00003451       6.23050495      23.77818960      -0.00007569      -0.00003366      -0.00871139
Ti       2.93605733       3.41907950      24.23063248      -0.00017201      -0.00472899      -0.00222088
Ti       0.00002438       3.40215967      24.18382512       0.00003829      -0.00881216      -0.00316896
Ti       4.41747475       1.31562674      25.35241188      -0.00039767       0.00618913       0.00122668
Ti       1.45458908       1.31564144      25.35239050       0.00052563       0.00613667       0.00135851
Ti       4.39431859       5.04032448      25.97649601       0.00024040      -0.01060855      -0.00894558
Ti       1.47775035       5.04031166      25.97647522      -0.00017332      -0.01064190      -0.00893413
