52
Lattice="5.088765 0.0 0.0 0.0 5.495746 0.0 0.0 0.0 32.722931" Properties=species:S:1:pos:R:3:forces:R:3 job_name=Segregation-1sol-C1-Al-Al-34-d-5.07 top_level=Segregation-1sol solute=Al energy=-399.11229657 stress_kbar_3x3="_JSON [[-36.32217493, 0.28281149, 1.70586017], [0.28281149, -30.14382585, -0.71279031], [1.70586018, -0.71279034, -18.79579957]]" pbc="T T T"
Ti       2.60833758       0.79154814       0.00816232      -0.00190355      -0.00187941       0.00288342
Ti       0.02252224       1.59987144       1.37327095      -0.00418172       0.00097262       0.00218598
Ti       0.80347348       4.34395668       1.36651995      -0.00295080       0.00062967       0.00152660
Ti       2.57268523       2.36118818       2.58196759      -0.00160452      -0.00025989       0.00168681
Ti       3.36645515       5.10664350       2.58851755      -0.00063469       0.00044885       0.00257281
Ti       0.81272136       0.38710072       3.82190485      -0.00275482       0.00126986       0.00211729
Ti       0.03572124       3.13487411       3.83516096      -0.00218236       0.00072357       0.00484825
Ti       3.36426168       1.18267264       5.07197968      -0.00266765      -0.00030797       0.00275364
Ti       2.55917186       3.93272461       5.07224617      -0.00348137       0.00004395       0.00187101
Ti       0.01427123       4.70734041       6.30830176      -0.00196996       0.00033218      -0.00250400
Ti       0.83637294       1.95369798       6.32208820      -0.00224970      -0.00043889      -0.00071776
Ti       3.37122435       2.74014044       7.55002860      -0.00295192      -0.00005945      -0.00146385
Ti       2.56252494       5.48692746       7.57093420      -0.00098988       0.00063413       0.00216273
Ti       0.81065760       3.53894261       8.80638723      -0.00451257       0.00272468      -0.00446613
Ti       5.08665626       0.79496972       8.81186856      -0.00659294       0.00013631      -0.00248043
Ti       2.54714748       1.58033747      10.04136348      -0.00362052      -0.00095874      -0.00714133
Ti       3.37206273       4.31061285      10.06777032      -0.00244607      -0.00025956       0.00324953
Ti       0.81992111       5.09879466      11.27245866      -0.00370072      -0.00144951      -0.00488212
Ti       0.02350799       2.34607662      11.32209613       0.00100408       0.00075484       0.00295103
Ti       3.31619282       0.40287775      12.52717784      -0.00315457       0.00263517       0.00068200
Ti       2.53545351       3.15228115      12.56812070      -0.00531373       0.00359830       0.00503881
Ti       5.07343268       3.92684373      13.74229469      -0.00792366      -0.00391158      -0.00705951
Ti       0.79696624       1.17110516      13.82107091      -0.00427213      -0.00330966       0.00830280
Ti       2.66116056       4.68766389      15.03651696       0.01155988      -0.00132773       0.00168600
Ti       3.38725822       1.93871008      14.96178725       0.00423579       0.00156396      -0.00675622
Ti       0.71184263       2.79899283      16.21944525      -0.00383085       0.00735348      -0.00130646
Ti       0.08388916       0.04636318      16.55543390       0.00433262       0.01400416       0.00578689
Ti       3.18100952       1.89507416      17.68614948      -0.00783592      -0.00627014       0.00014403
Ti       2.55727042       4.61680494      17.78441761       0.00445631       0.01177729       0.00039066
Ti       0.03207599       3.84195546      18.95215759       0.00010175      -0.00820759      -0.00515193
Ti       0.96894135       1.10212652      19.07564596       0.00891136      -0.00399422      -0.00012537
Ti       3.51208435       0.48817174      20.05580927       0.00200846       0.00698072      -0.01173299
Ti       2.64563896       3.21966914      20.26200423       0.00765319      -0.00216746       0.00968463
Ti       0.72652886       5.09214749      21.43536177       0.01068707       0.00156117      -0.00008515
Al       0.08634135       2.34761782      21.44368016       0.00202730      -0.00157397       0.00393326
Ti       2.62818108       1.47777264      22.60194655       0.00113314      -0.00273110      -0.00071018
Ti       3.51206896       4.23080100      22.78835300      -0.00215308      -0.00397172       0.00241007
Ti       0.00857266       0.82735323      23.91854801       0.00291631       0.00253198      -0.00011920
Ti       0.94353424       3.56965962      23.84007245       0.00731335      -0.00245469       0.00230455
Ti       3.30798319       2.75258043      25.16275698       0.00275625      -0.00137082       0.00586643
Ti       2.53879746       0.02335906      25.15655721      -0.00119954      -0.00544205      -0.00718552
Ti       0.81557364       1.94601688      26.43874422      -0.00098241      -0.00122176      -0.00735819
Ti       0.00992273       4.68077877      26.33982629       0.00224831      -0.00461122      -0.00535904
Ti       2.55256787       3.95016204      27.64656740       0.00532001       0.00190479       0.00624133
Ti       3.38420420       1.18046756      27.63413800       0.00199132      -0.00245124       0.00428334
Ti       0.78018144       0.39027004      28.85803526       0.00143206      -0.00127340       0.00498254
Ti       0.00689834       3.15107438      28.88114387       0.00151936       0.00182266       0.00405355
Ti       2.54885675       2.35396465      30.10710660      -0.00032463       0.00009932       0.00007131
Ti       3.33563371       5.09929924      30.13998307       0.00194801       0.00055961      -0.00341167
Ti       0.81782193       4.34563009      31.33105092       0.00084530       0.00084224      -0.00434647
Ti       0.02623283       1.60232640      31.33850923       0.00202256      -0.00148712      -0.00350289
Ti       3.30289009       3.54056356      32.69276627      -0.00003751      -0.00251462      -0.00880485
