52
Lattice="4.6568 0.0 0.0 0.0 7.770572 0.0 0.0 0.0 25.044546" Properties=species:S:1:pos:R:3:forces:R:3 job_name=SegregationProfile-CSL7-Al-Al-34-d-4.60 top_level=SegregationProfile solute=Al energy=-397.54496048 stress_kbar_3x3="_JSON [[-14.92893995, -0.31657607, 0.38442788], [-0.31657603, -25.5206887, -0.34264575], [0.38442788, -0.34264577, -20.11388799]]" pbc="T T T"
Ti       1.81963279       7.40435732       0.69240886       0.00028486       0.00843112      -0.00026583
Ti       4.63018527       5.60584389       1.36305083       0.00457574       0.00106886       0.00343193
Ti       2.45775262       2.28046026       1.62168345       0.00135519       0.00529592      -0.00214833
Ti       4.56765493       0.62238011       2.07074926      -0.00413248       0.01122718       0.00265290
Ti       2.35653004       5.01008193       2.82478572       0.00500661       0.00536821      -0.00020394
Ti       0.02734098       3.33709706       3.01268790       0.00038134       0.00446510      -0.00144449
Ti       2.30999976       0.01137691       3.64540750       0.00053176       0.00666711       0.00202693
Ti       0.02677348       6.10483118       4.08940055       0.00305094       0.00651519       0.00102024
Ti       2.34176532       2.76638804       4.59970708       0.00255766       0.00068885      -0.00133978
Ti       0.00286104       1.11928632       4.99323299       0.00365837       0.00401768       0.00166333
Ti       2.34690077       5.56991233       5.61947236       0.00234426       0.00310909      -0.00174064
Ti       0.00742824       3.87354032       5.94566501       0.00230515       0.00149812      -0.00168312
Ti       2.33564538       0.56517396       6.58080086       0.00159395       0.00341650       0.00232329
Ti       0.01536229       6.64425852       6.91761996       0.00255146       0.00357431      -0.00090258
Ti       2.33187321       3.32768150       7.52863076      -0.00138176       0.00302464      -0.00214030
Ti       0.00967990       1.68045736       7.92958028       0.00213602       0.00401613       0.00149785
Ti       2.35829035       6.10697418       8.45128943      -0.00375409       0.00724431       0.00101524
Ti       4.63626054       4.42372236       8.86989063      -0.00251063       0.01087039       0.00418412
Ti       2.34260677       1.11650104       9.51431876       0.00098282       0.00570172       0.00210808
Ti       0.02235856       7.21453489       9.71098796       0.00030037       0.00436844      -0.00260783
Ti       2.22906016       3.81984616      10.45181357       0.00196447       0.00900878       0.00305932
Ti       0.12920493       2.17746991      10.94701490       0.00236734      -0.00140606      -0.00024399
Ti       2.29315799       6.63403532      11.16687818       0.00300912      -0.00587212      -0.00182157
Ti       4.15994219       4.85860593      11.77472890      -0.00628800      -0.00321572       0.00109129
Ti       2.70007109       1.64567434      12.54863565      -0.00281506      -0.00625321      -0.00496145
Ti       0.38286559       7.65875330      12.55627506      -0.00130762       0.00151878       0.00530819
Ti       1.24805965       4.81474000      13.22786582       0.00398591      -0.00998440       0.00346917
Ti       3.08507598       6.64332580      13.89023670       0.00251751      -0.01093744      -0.00357178
Ti       0.62262270       2.16013248      14.20113221       0.00284689      -0.00611185       0.00353918
Ti       3.20761793       3.84903982      14.49558200       0.00477419      -0.00728305       0.00205854
Ti       0.71639588       7.17809022      15.38561125      -0.00110900      -0.00635131      -0.00128768
Ti       3.07061065       1.11046900      15.60015448      -0.00272216      -0.01175200      -0.00167833
Ti       0.74515467       4.34790116      16.15223415       0.00321347       0.00179192       0.00151089
Ti       3.05641042       6.00731010      16.59009151      -0.00301106      -0.00954636       0.00376900
Al       0.74600255       1.66018210      17.15103612      -0.00029131      -0.00527675      -0.01081069
Ti       3.07640166       3.24671874      17.52587874      -0.00022057      -0.01335315      -0.00204661
Ti       0.74120523       6.63312715      18.09958457      -0.00625187      -0.00128352       0.00091533
Ti       3.08404101       0.56002434      18.42533144      -0.00449153      -0.00238419      -0.00538400
Ti       0.74409384       3.83884204      19.08715623      -0.00171108      -0.00875700       0.00497353
Ti       3.07125047       5.54830997      19.40499267      -0.00781133      -0.00416383       0.00419539
Ti       0.74991930       1.14771466      20.01996949      -0.00292397      -0.00341077      -0.00062924
Ti       3.06204104       2.78102493      20.48932902      -0.00181940      -0.01424745       0.00305244
Ti       0.72783280       6.11421604      20.92757392      -0.00389652      -0.00078306       0.00213972
Ti       3.09613006       0.02024673      21.36027786       0.00315249      -0.00660565       0.00358767
Ti       0.73054955       3.35278877      22.04875652      -0.00364133      -0.00145883      -0.00918625
Ti       3.05006583       5.03310175      22.21506932      -0.00143341      -0.00489130      -0.00177740
Ti       0.84286893       0.63356277      22.93391703       0.00300290       0.00829705       0.00232421
Ti       2.94073604       2.27979338      23.45163078       0.00041615       0.00624899      -0.00834331
Ti       0.78655230       5.61936415      23.66614171       0.00016459      -0.00346576      -0.00625775
Ti       3.59032498       7.39686702      24.31970285      -0.00020573       0.00732427       0.00614655
Ti       0.37837343       2.80125536      25.04322379      -0.00028121       0.00785116      -0.00366334
Ti       2.70934983       4.57324974      25.03842573      -0.00102042       0.00618496       0.00307591
