52
Lattice="5.088765 0.0 0.0 0.0 5.495746 0.0 0.0 0.0 32.722931" Properties=species:S:1:pos:R:3:forces:R:3 job_name=SegregationProfile-C1-Al-Al-35-d-6.31 top_level=SegregationProfile solute=Al energy=-399.0225516 stress_kbar_3x3="_JSON [[-38.08952826, -0.18449064, 0.126333], [-0.18449065, -29.63903529, -0.11200513], [0.12633304, -0.11200509, -18.34707616]]" pbc="T T T"
Ti       2.61337818       0.80124944      32.71208414      -0.00070139      -0.00017256      -0.00167132
Ti       0.02317835       1.59807453       1.36477386       0.00028745      -0.00077265       0.00042425
Ti       0.81519808       4.34778655       1.37257092      -0.00050753       0.00003311       0.00227876
Ti       2.56512032       2.35629488       2.58200563      -0.00070342      -0.00077482       0.00127661
Ti       3.36078896       5.10599557       2.58292897      -0.00114033      -0.00044984       0.00075334
Ti       0.80655494       0.38897323       3.82645140      -0.00188424      -0.00023790       0.00261569
Ti       0.02980103       3.13505308       3.82603407      -0.00058710      -0.00011099       0.00190426
Ti       3.36695784       1.18384944       5.07066828      -0.00123174       0.00012400       0.00004772
Ti       2.55870516       3.93077240       5.06961519      -0.00144682      -0.00067534      -0.00074333
Ti       0.00553576       4.70163608       6.31197033      -0.00085771       0.00042304      -0.00237861
Ti       0.83020654       1.95541096       6.31169523      -0.00048535       0.00000760      -0.00255537
Ti       3.36676763       2.73726110       7.55828118      -0.00205097       0.00000121      -0.00240897
Ti       2.55632140       5.48497162       7.55720525      -0.00106261       0.00037716      -0.00156319
Ti       0.82298975       3.53830220       8.80507912      -0.00142135      -0.00038600       0.00110811
Ti       0.01065997       0.79081109       8.80511314      -0.00080826      -0.00055817       0.00068870
Ti       2.54831718       1.57209070      10.05157285      -0.00050341      -0.00083229       0.00238738
Ti       3.37348648       4.31654332      10.04937922       0.00031882      -0.00075109       0.00220912
Ti       0.81774142       5.09078479      11.28850161      -0.00130127      -0.00077870      -0.00059250
Ti       0.01264493       2.34482656      11.29430467      -0.00028296      -0.00001779       0.00033200
Ti       3.34562259       0.38734251      12.53626184      -0.00103176      -0.00055843      -0.00221877
Ti       2.56899734       3.13912070      12.53844279      -0.00012523      -0.00077451      -0.00095426
Ti       0.01776854       3.91878120      13.77745128      -0.00118794      -0.00262147      -0.00349737
Ti       0.81185141       1.16639741      13.77900766      -0.00062506      -0.00143154      -0.00272056
Ti       2.57634727       4.66967055      15.00868948       0.00172142      -0.00231216       0.00083762
Ti       3.35814501       1.91772761      14.98367492       0.00008144      -0.00263820      -0.00193507
Ti       0.75929439       2.72981991      16.34211278      -0.00032049       0.00088878      -0.00134833
Ti       0.07129755       5.47397637      16.39240325       0.00081065       0.00189752       0.00229006
Ti       3.33720728       1.91190009      17.73108130       0.00009214       0.00399085      -0.00162524
Ti       2.56363695       4.65721951      17.78894090      -0.00134264       0.00046725       0.00208815
Ti       0.01540122       3.90772490      18.95947476       0.00120367       0.00166219      -0.00025355
Ti       0.78810760       1.17358226      18.94672728       0.00060430       0.00136337       0.00159985
Ti       3.42704096       0.37919670      20.24139338      -0.00081923      -0.00023554       0.00424272
Ti       2.57847605       3.10841293      20.22938722       0.00016043      -0.00058053       0.00139524
Ti       0.92393155       5.17705318      21.34869190       0.00436981       0.00500033      -0.00043715
Ti       0.06684183       2.40695789      21.49197603       0.00399665      -0.00270711       0.00171369
Al       2.61412595       1.56988979      22.68154613      -0.00230988      -0.00016048      -0.00025861
Ti       3.30556663       4.32643828      22.67875957      -0.00260585      -0.00021974      -0.00032432
Ti       0.06840154       0.72276887      23.87093151       0.00368711       0.00415917      -0.00187212
Ti       0.94423898       3.46022418      24.01070649       0.00433818      -0.00420916       0.00022829
Ti       3.46124935       2.77382605      25.11024487      -0.00007240      -0.00059072      -0.00301993
Ti       2.55668605       0.03090160      25.14747962       0.00168814       0.00250884      -0.00049761
Ti       0.78364023       1.96078350      26.41292648       0.00050974      -0.00000503       0.00046550
Ti      -0.00028008       4.72266234      26.40507066       0.00139071       0.00029760       0.00231686
Ti       2.55751779       3.92074055      27.59126758      -0.00023124       0.00155250      -0.00166007
Ti       3.35393781       1.18004523      27.67257984       0.00244009      -0.00159661       0.00119145
Ti       0.82088651       0.39800720      28.89039210      -0.00040036      -0.00059232      -0.00281021
Ti       0.03079495       3.15924733      28.88082509       0.00055321       0.00029534      -0.00155226
Ti       2.55638852       2.37687535      30.12575954       0.00019038       0.00032986      -0.00024785
Ti       3.34886788       5.11427521      30.10481162       0.00053774      -0.00014067      -0.00029400
Ti       0.78880169       4.36302181      31.34617129      -0.00060035       0.00084306       0.00277031
Ti       0.01305025       1.61501718      31.32916923      -0.00041319       0.00204286       0.00050895
Ti       3.30997862       3.54435510       0.00161255       0.00007999      -0.00037329       0.00176587
