64
Lattice="5.088765 0.0 0.0 0.0 9.739025 0.0 0.0 0.0 22.303587" Properties=species:S:1:pos:R:3:forces:R:3 job_name=SegregationProfile-T2-V-V-33-d-0.00 top_level=SegregationProfile solute=V energy=-496.13217126 stress_kbar_3x3="_JSON [[-4.89325065, -0.00335271, -0.46905488], [-0.00335276, -19.64927699, 0.009647], [-0.46905485, 0.00964697, -18.47625842]]" pbc="T T T"
Ti       2.54456573       9.27199008       0.00004023      -0.00004296       0.00137762       0.00042631
Ti       0.00019715       4.40441094       0.00004865      -0.00001495       0.00291777       0.00013916
Ti       1.27210516       1.89433136       0.61203725       0.00818666       0.00774119       0.00999030
Ti       3.81625935       6.76473855       0.61595006       0.00790982       0.00406767      -0.00228871
Ti       2.71874677       4.08427140       1.39207873      -0.01010323       0.00421166       0.00255608
Ti       0.17298860       8.95727715       1.39305054      -0.00721817       0.00132611       0.00459647
Ti       1.04225213       6.23023026       2.12263013       0.01033062       0.00268776       0.01263571
Ti       3.58489677       1.36010073       2.12587670       0.00746784       0.00026184      -0.00192474
Ti       0.23681169       3.50674636       2.77027064      -0.00548937       0.00877745      -0.00132626
Ti       2.78177630       8.37536290       2.77289820      -0.00427361       0.00838690       0.00186778
Ti       1.11955837       0.88001025       3.50156436      -0.00859577       0.00204895       0.00099583
Ti       3.66474971       5.75108116       3.49831507      -0.00093645       0.00446329      -0.00596186
Ti       2.76562934       3.12361872       4.20171573       0.00347757      -0.00280554      -0.00270640
Ti       0.22811410       7.98822326       4.20707073      -0.00212447       0.00962122      -0.00680650
Ti       3.61107467       0.44707484       4.85537645      -0.00211198       0.00296973       0.00119126
Ti       1.06956928       5.32549952       4.85479853      -0.00509436       0.00022712      -0.00267437
Ti       2.77843347       7.51941131       5.58981039      -0.00462692       0.00030731       0.00317802
Ti       0.22510797       2.65050233       5.57644719       0.00334080       0.00536424       0.00017396
Ti       3.64373441       4.88302983       6.31122996       0.00661313      -0.00398675       0.00242590
Ti       1.08421294       0.01361686       6.32201124      -0.00289409      -0.00039396      -0.00993502
Ti       0.23409626       7.08010306       6.99750518       0.00176276       0.00233989       0.01058846
Ti       2.76957714       2.21154628       6.97936819      -0.01177563       0.00326691       0.00637121
Ti       1.13945114       4.47023043       7.61584050      -0.00776342      -0.01199137      -0.00348870
Ti       3.67124658       9.33561611       7.63919145      -0.00497450       0.00141243      -0.00604016
Ti       0.24139396       1.86887496       8.40273094      -0.00797072       0.00726227      -0.00137556
Ti       2.81606947       6.71789356       8.40654804      -0.00540754      -0.00036959       0.00187862
Ti       0.98513302       8.84832324       9.02774936      -0.00255846      -0.00850503       0.00108255
Ti       3.53551576       3.99954463       9.04251654       0.01083122      -0.00832062       0.00329581
Ti       2.74675773       1.17184594       9.77433479       0.00339793      -0.00963466       0.00248013
Ti       0.34776654       6.02739455       9.82414590       0.00453458      -0.00849824      -0.00401405
Ti       3.82303798       8.16620376      10.58929124      -0.00112115      -0.01188162       0.00308866
Ti       1.28270822       3.36659495      10.59081414       0.00263492      -0.01542215       0.00334405
Ti       0.00008405       0.83215879      11.15160573      -0.00005856       0.00754162       0.00011959
V        2.54448906       5.64835324      11.15162281      -0.00003030      -0.00012296      -0.00000881
Ti       3.80623006       3.36662218      11.71254244      -0.00255586      -0.01515993      -0.00310640
Ti       1.26588929       8.16629049      11.71403108       0.00118759      -0.01204661      -0.00298877
Ti       2.34198275       1.17206270      12.52911433      -0.00356008      -0.00979079      -0.00239296
Ti       4.74106256       6.02742561      12.47929089      -0.00425568      -0.00838026       0.00398481
Ti       1.55336383       3.99958237      13.26082583      -0.01107466      -0.00828176      -0.00325759
Ti       4.10370606       8.84843801      13.27553861       0.00248449      -0.00884711      -0.00096636
Ti       4.84748892       1.86881678      13.90062891       0.00782574       0.00756239       0.00157299
Ti       2.27293037       6.71786835      13.89680538       0.00513248      -0.00015852      -0.00179592
Ti       1.41759615       9.33553095      14.66414773       0.00524154       0.00142419       0.00610520
Ti       3.94941219       4.47012900      14.68756561       0.00783139      -0.01216689       0.00321065
Ti       4.85479442       7.07996357      15.30582855      -0.00169919       0.00262230      -0.01099568
Ti       2.31924954       2.21147403      15.32403551       0.01206337       0.00310300      -0.00646534
Ti       1.44512360       4.88294008      15.99214518      -0.00648859      -0.00406372      -0.00249772
Ti       4.00469451       0.01340008      15.98136531       0.00269671       0.00017316       0.00977003
Ti       2.31038433       7.51931386      16.71346843       0.00447905       0.00017883      -0.00312426
Ti       4.86372490       2.65041510      16.72692285      -0.00343714       0.00510002      -0.00042215
Ti       4.01932432       5.32546803      17.44854861       0.00499607      -0.00006385       0.00264414
Ti       1.47782978       0.44698677      17.44804327       0.00228315       0.00293886      -0.00155966
Ti       4.86072493       7.98813476      18.09635879       0.00213318       0.00933842       0.00669659
Ti       2.32320718       3.12350809      18.10175321      -0.00347370      -0.00289335       0.00255526
Ti       1.42414833       5.75105544      18.80506486       0.00079357       0.00434767       0.00590619
Ti       3.96941791       0.88001745      18.80181609       0.00793526       0.00205110      -0.00084658
Ti       2.30725345       8.37508234      19.53039113       0.00444831       0.00855340      -0.00189472
Ti       4.85222201       3.50657183      19.53307820       0.00580043       0.00833147       0.00137718
Ti       1.50391898       1.35963679      20.17765991      -0.00731661       0.00026543       0.00185627
Ti       4.04655498       6.22979723      20.18082719      -0.00998735       0.00283051      -0.01253314
Ti       4.91548645       8.95665996      20.91000541       0.00732076       0.00104836      -0.00463415
Ti       2.36987762       4.08366540      20.91103872       0.00984846       0.00406410      -0.00238153
Ti       3.81695480       1.89409898      21.69135314      -0.00795071       0.00748249      -0.01009800
Ti       1.27290721       6.76446721      21.68737911      -0.00800322       0.00378866       0.00240690
