64
Lattice="5.871999 0.0 0.0 0.0 6.890708 0.0 0.0 0.0 27.401158" Properties=species:S:1:pos:R:3:forces:R:3 job_name=SegregationProfile-T1m-V-V-47-d-5.43 top_level=SegregationProfile solute=V energy=-495.77528162 stress_kbar_3x3="_JSON [[-12.54141691, 0.00082238, 0.0003689], [0.00082243, -13.5390709, -3.15155062], [0.00036889, -3.15155062, -20.89962317]]" pbc="T T T"
Ti       2.94802522       0.08658250      27.38014776      -0.00179273      -0.00881969       0.01255786
Ti       2.93807449       2.92592021      27.37814642       0.00003360      -0.00114625       0.00677598
Ti       5.86007040       0.08648041      27.38019594       0.00177399      -0.00864405       0.01249839
Ti       5.86992909       2.92583442      27.37812230      -0.00001610      -0.00089875       0.00680642
Ti       4.40394247       5.01624185       1.38974414       0.00003909       0.00400290       0.00387967
Ti       1.46809161       5.01837978       1.39614125      -0.00003749       0.00614640       0.00675105
Ti       4.40402419       1.31419725       2.01755355      -0.00004513      -0.00609591       0.00407396
Ti       1.46800130       1.31250929       2.00832535       0.00012368      -0.00562726       0.00641350
Ti       2.93524237       3.40650276       3.20091322       0.00163751       0.00271850      -0.00195365
Ti       0.00078776       3.40647073       3.20095988      -0.00163087       0.00284773      -0.00203790
Ti       2.93666487       6.22406412       3.60632424       0.00111406       0.00304862      -0.01001814
Ti       5.87134285       6.22411838       3.60629841      -0.00104279       0.00300335      -0.01007245
Ti       1.46805588       1.49214464       4.82840839      -0.00012600      -0.00308108      -0.01000552
Ti       4.40397067       1.49142770       4.83369471       0.00008882      -0.00274808      -0.01336253
Ti       1.46805317       4.44279998       5.43807218       0.00012332       0.00505105      -0.00803195
Ti       4.40397108       4.44331241       5.43898231       0.00003780       0.00365747      -0.00794980
Ti       2.93435481       6.60280694       6.60215302      -0.00003395       0.00238019      -0.00652471
Ti       0.00164558       6.60282710       6.60220935       0.00003763       0.00244349      -0.00666238
Ti       2.93504036       2.52967737       7.10370947       0.00019605       0.00518833       0.00085282
Ti       0.00099967       2.52969269       7.10372354      -0.00031703       0.00511312       0.00082192
Ti       4.40400659       4.69300351       8.26809038       0.00005961       0.00107885       0.00710467
Ti       1.46797792       4.69497257       8.26837567      -0.00000359      -0.00017743       0.00663019
Ti       4.40399792       0.74904835       8.86849782       0.00012043       0.00688357       0.01060548
Ti       1.46799902       0.74507780       8.87905092      -0.00008994       0.00873259       0.00536835
Ti       5.87108917       2.91262810      10.08513576      -0.00107879       0.00471056       0.00335117
Ti       2.93688251       2.91258998      10.08511295       0.00107855       0.00472802       0.00356118
Ti       0.00306479       5.73315288      10.51622212      -0.00259693       0.00000156       0.00285015
Ti       2.93294649       5.73315677      10.51618910       0.00257864      -0.00004603       0.00302249
Ti       1.46797252       0.95766805      11.70393717       0.00012431       0.00700317       0.00518391
Ti       4.40403789       0.95560938      11.68497119      -0.00007178       0.00985563       0.00821924
Ti       1.46795590       4.09184254      12.30558674       0.00013831      -0.00346634      -0.00144126
Ti       4.40403620       4.09732051      12.32202114      -0.00007555      -0.00362938       0.00375472
Ti       2.96961086       2.15555785      13.77147833      -0.00199744       0.00289334       0.00639587
Ti       5.83840007       2.15552018      13.77144696       0.00196537       0.00295809       0.00663682
Ti       2.94283581       6.21025725      13.68835563       0.00035144       0.00832938      -0.00511536
Ti       5.86511967       6.21021529      13.68833201      -0.00036594       0.00856224      -0.00497884
Ti       4.40399104       4.16785707      15.16476119       0.00012728      -0.00265055      -0.00305126
Ti       1.46797480       4.14265709      15.12940691      -0.00007850      -0.00512223      -0.00631874
Ti       4.40404321       0.85077751      15.76595743       0.00001516       0.00100604      -0.01479746
Ti       1.46795988       0.87912400      15.73616909      -0.00003416       0.00370365      -0.01784655
Ti       2.88447165       5.69745921      17.02866497       0.00312283      -0.00796160       0.00876292
Ti       0.05159956       5.69748964      17.02867372      -0.00322297      -0.00813232       0.00871988
Ti       2.91119764       2.89662014      17.31440330       0.00060353      -0.00184708      -0.00988954
Ti       0.02474693       2.89661460      17.31441689      -0.00059693      -0.00174463      -0.01006083
Ti       4.40402769       0.78719872      18.55709675      -0.00007376       0.00729596       0.00137317
Ti       1.46801014       0.71933243      18.53371609       0.00002999       0.00836096       0.00460293
Ti       4.40398563       4.64290526      19.15550598      -0.00000548      -0.01117467       0.00277610
V        1.46807570       4.61910576      19.14766832       0.00001113      -0.00789195       0.00485664
Ti       0.03163349       2.52849306      20.28640295      -0.00157564      -0.00442936      -0.00004307
Ti       2.90444396       2.52845505      20.28640848       0.00153667      -0.00450371      -0.00020313
Ti       0.00971899       6.54405136      20.74252367       0.00007837      -0.00371916      -0.00102597
Ti       2.92632891       6.54406335      20.74258000      -0.00007069      -0.00365489      -0.00120619
Ti       1.46806459       4.41100610      21.91703553      -0.00014412      -0.00153862      -0.00466490
Ti       4.40402818       4.43533080      21.95816688       0.00001122      -0.00219321      -0.00679557
Ti       1.46801446       1.46156007      22.53660927       0.00003619      -0.00967106      -0.00440655
Ti       4.40402888       1.45029788      22.51574158      -0.00003337      -0.00544597      -0.00536409
Ti       2.93209695       6.21149559      23.75609048       0.00000855       0.00384278      -0.00397900
Ti       0.00397729       6.21147665      23.75605924       0.00003602       0.00389938      -0.00405856
Ti       2.92676241       3.38475167      24.16619225       0.00225626      -0.00550087      -0.00350974
Ti       0.00934449       3.38478082      24.16614913      -0.00224586      -0.00543625      -0.00334873
Ti       4.40415771       1.30441166      25.33554796      -0.00021902      -0.00708653      -0.00093630
Ti       1.46799652       1.29703109      25.35671790       0.00006686      -0.00853893       0.00042018
Ti       4.40399596       5.00946995      25.95536818       0.00008479       0.00603576       0.00912205
Ti       1.46805867       5.01216459      25.96870851      -0.00002450       0.00714114       0.01491098
