64
Lattice="5.088765 0.0 0.0 0.0 9.739025 0.0 0.0 0.0 22.303587" Properties=species:S:1:pos:R:3:forces:R:3 job_name=SegregationProfile-T2-V-V-37-d-1.39 top_level=SegregationProfile solute=V energy=-496.07944548 stress_kbar_3x3="_JSON [[-3.85963822, -1.25879244, 0.048992], [-1.25879241, -19.79695193, 0.15796929], [0.04899201, 0.15796933, -20.86479395]]" pbc="T T T"
Ti       2.53783180       9.26221707       0.00056132      -0.01318304       0.00211722       0.01254536
Ti       5.08356474       4.39204473      -0.00278514       0.00584527       0.00694623      -0.00969745
Ti       1.26393472       1.88640194       0.61176356       0.00031064      -0.00219095       0.00050047
Ti       3.80729426       6.75272977       0.60960915      -0.00476741       0.00695752      -0.00128699
Ti       2.70948588       4.07896384       1.38607543      -0.00674676      -0.00029120       0.00406711
Ti       0.16115492       8.94306872       1.39566320       0.00493758       0.00345950       0.00589274
Ti       1.03198901       6.22287593       2.12171557      -0.00099076       0.00411156       0.00164773
Ti       3.57769311       1.35025781       2.11778912      -0.00616056      -0.00176652       0.00483826
Ti       0.22279132       3.50289785       2.76517586      -0.00402607      -0.00064643       0.00781900
Ti       2.76513028       8.36759771       2.77215427      -0.00526662       0.00492902       0.00112813
Ti       1.10112351       0.87290813       3.50471783      -0.00549332       0.00187021      -0.00558524
Ti       3.64446636       5.74450879       3.50129459      -0.00006330       0.00010415       0.00598862
Ti       2.75418259       3.10854346       4.18914007       0.00575791      -0.00122017      -0.00674011
Ti       0.21127483       7.97168121       4.21024463      -0.00191716      -0.00260640       0.00144936
Ti       3.60437911       0.43434097       4.85606143       0.00487569      -0.00031879      -0.00692198
Ti       1.06400027       5.30892929       4.86617156      -0.00678410       0.00070006      -0.00315277
Ti       2.75566332       7.51300029       5.60504261       0.00127998      -0.00080305       0.00022226
Ti       0.20716181       2.65504458       5.58508754      -0.00625213       0.00154665      -0.00247587
Ti       3.61161740       4.86938008       6.30052430       0.00832490       0.00317288      -0.00318239
Ti       1.05774594       9.73592307       6.30480927      -0.00137913      -0.00001336       0.00061496
Ti       0.22086047       7.05682527       7.01484238      -0.00097424       0.00011431      -0.00588408
Ti       2.75031849       2.19570178       6.95894003       0.00669884      -0.00129866       0.00748641
Ti       1.10862872       4.44318543       7.66717326       0.00426643      -0.00452780       0.00373662
Ti       3.63987564       9.29332095       7.65948628       0.00094081      -0.00012738      -0.00578616
Ti       0.21911014       1.80802479       8.39187319       0.00374937      -0.00104790      -0.00054980
Ti       2.79730132       6.64095882       8.44364833      -0.00531279       0.00216142       0.00140632
Ti       1.02904335       8.82082034       9.04463336       0.01051108       0.00227270      -0.00375644
Ti       3.60627593       3.95410036       9.03302564      -0.00237514       0.00231846      -0.00994426
Ti       2.69553081       1.23268146       9.74413588       0.00069438       0.00435301      -0.00444254
Ti       0.21696785       6.09175314       9.90528316       0.00466120      -0.00104411      -0.00512327
Ti       3.78342361       8.31964321      10.51405998      -0.00150356      -0.01332110       0.00390661
Ti       1.30847162       3.44951432      10.53074989      -0.00302477      -0.00005253      -0.00642801
Ti       5.06467678       0.92829419      11.15661167       0.00877531       0.00118487       0.01014592
Ti       2.71183267       5.81213021      11.25153839      -0.00119302       0.00510334      -0.00383871
Ti       3.86061597       3.43987151      11.78651990       0.00643600      -0.01335543       0.00335114
Ti       1.22154575       8.25257926      11.77444182       0.00690095      -0.00928797      -0.00221083
Ti       2.38744173       1.22554050      12.51361172       0.00435334      -0.00762851       0.00383833
V        5.06853040       6.11416863      12.60024778      -0.00158021      -0.00672667      -0.00241900
Ti       1.45416097       3.96996211      13.22664289       0.00764847      -0.00703555       0.00102100
Ti       4.02277978       8.76452295      13.25152593       0.00570910      -0.00574825       0.00538681
Ti       4.83712536       1.75813469      13.90738001      -0.00456268       0.00032651      -0.00671456
Ti       2.28239389       6.67240019      13.91342105       0.00268396      -0.00426003       0.00404597
Ti       1.43625591       9.31821325      14.63907783       0.00764323       0.00446104       0.00082339
Ti       3.99966764       4.46560538      14.53788385       0.00191439       0.00367076       0.00058896
Ti       4.88055977       7.06359735      15.34883449      -0.00574223       0.00059015       0.00162720
Ti       2.33505923       2.21788480      15.31864062       0.01051223      -0.00619652      -0.00020335
Ti       1.49055811       4.87848870      15.98465427       0.00139561       0.00023010       0.00821231
Ti       4.00604716      -0.00063794      16.00091867      -0.00451812      -0.00609283      -0.00531377
Ti       2.33194261       7.53475845      16.71249836       0.00286417      -0.00394413       0.00223477
Ti       4.87108711       2.67129996      16.68013834       0.00134702       0.00670555       0.00834648
Ti       4.00053170       5.29896275      17.42307121       0.00373463       0.00260260      -0.00263276
Ti       1.45552408       0.43805082      17.42905822      -0.00051516       0.00109948       0.00676615
Ti       4.86250178       7.97761079      18.11138833       0.00123500      -0.00056109       0.00854631
Ti       2.31646148       3.10467067      18.10138522      -0.00927024       0.00170815      -0.00000444
Ti       1.43216518       5.74141421      18.77243167      -0.00494661       0.00161364      -0.00556585
Ti       3.97675084       0.87674725      18.77798124       0.00054646      -0.00211259      -0.00505161
Ti       2.31354823       8.36971661      19.53616179      -0.00457336       0.00554523      -0.00387995
Ti       4.85793595       3.50111487      19.52342927       0.00280971       0.00403974       0.00615446
Ti       1.50491044       1.35215883      20.17571517      -0.00894319       0.00409460      -0.00752810
Ti       4.04857977       6.21693405      20.17109890       0.00407920       0.00386737      -0.00215874
Ti       4.91127106       8.95598644      20.90701734       0.00391623      -0.00139418      -0.00020676
Ti       2.36880529       4.08520899      20.90057544      -0.01042434       0.00724144      -0.00039194
Ti       3.80940498       1.88795846      21.68010158      -0.00324620       0.00757078      -0.00118595
Ti       1.26413752       6.75746571      21.68138933      -0.01162287      -0.00317016      -0.00407549
