64
Lattice="5.872 0.0 0.0 0.0 6.890708 0.0 0.0 0.0 27.394398" Properties=species:S:1:pos:R:3:forces:R:3 job_name=SegregationProfile-T1g-Al-Al-31-d-0.22 top_level=SegregationProfile solute=Al energy=-491.94081851 stress_kbar_3x3="_JSON [[-10.15973122, -0.00018707, 0.00027286], [-0.00018707, -9.75450446, -2.24316413], [0.00027285, -2.24316415, -21.00415837]]" pbc="T T T"
Ti       4.40402389       5.20929066      27.38973484      -0.00000984      -0.00496493       0.00025437
Ti       1.46793619       5.20864524      27.39067205       0.00007474      -0.00475129      -0.00075426
Ti       0.00211672       3.18306194       1.28880417       0.00034797      -0.00282060      -0.00329873
Ti       2.93387676       3.18306202       1.28878964      -0.00041914      -0.00280014      -0.00322285
Ti       5.86913634       6.63108005       1.91046749      -0.00012628       0.00286701       0.00047573
Ti       2.93881745       6.63108378       1.91044121       0.00012001       0.00282524       0.00042821
Ti       4.40397947       1.76460541       3.20462063      -0.00003955      -0.00228936       0.00324049
Ti       1.46799104       1.76257955       3.20459101       0.00002998      -0.00233917       0.00389250
Ti       1.46797685       4.59200569       3.41646867       0.00008167       0.00204268      -0.00141005
Ti       4.40397693       4.59320786       3.41325774      -0.00001999       0.00316869      -0.00154968
Ti       5.87146731       6.71939246       4.73522348      -0.00063909       0.00429889      -0.00414188
Ti       2.93650228       6.71938370       4.73517185       0.00062492       0.00430716      -0.00406884
Ti       2.93337463       2.87894338       5.34568895      -0.00047187       0.00150779      -0.00512209
Ti       0.00259301       2.87894950       5.34569868       0.00043615       0.00146213      -0.00515242
Ti       4.40397246       5.00592243       6.50365591      -0.00003178       0.00184468      -0.00838556
Ti       1.46799264       5.00270135       6.51312184       0.00005186       0.00021922      -0.00882058
Ti       4.40397641       0.93897978       6.98402502       0.00002994       0.00370893      -0.01077307
Ti       1.46798986       0.93414636       6.97299811      -0.00003791       0.00565279      -0.01241347
Ti       2.94612840       3.09639233       8.17191625       0.00031664       0.00674341       0.00057758
Ti       5.86185578       3.09638493       8.17191185      -0.00028594       0.00667344       0.00058769
Ti       2.94517115       6.03789567       8.76948305       0.00263043      -0.00079861       0.00638250
Ti       5.86281581       6.03791227       8.76949696      -0.00262711      -0.00072561       0.00641556
Ti       4.40401337       1.31046762       9.97457264      -0.00000695       0.00319329       0.01072182
Ti       1.46801009       1.30539012       9.95308120      -0.00002046       0.00466784       0.01151473
Ti       4.40402547       4.13860451      10.44096087      -0.00006904       0.00625125       0.00561995
Ti       1.46799168       4.13436704      10.37876182       0.00006454       0.00459806       0.00931440
Ti       2.91663776       6.27527178      11.60704097       0.00755263       0.00250948      -0.00235889
Ti       0.01936584       6.27528028      11.60708303      -0.00753614       0.00254374      -0.00245597
Ti       2.96382154       2.43017504      12.18342682      -0.00160633       0.00147087      -0.01677503
Ti       5.84423589       2.43015759      12.18337287       0.00155803       0.00150801      -0.01684751
Ti       1.46804538       4.59532694      13.40865550       0.00013290       0.00556083      -0.01049714
Al       4.40403868       4.54307926      13.46061030      -0.00010961       0.00972240      -0.01520218
Ti       4.40389706       0.43247356      13.75120333      -0.00004689      -0.00482764      -0.00297618
Ti       1.46809736       0.56504431      13.77591967       0.00000664      -0.00137135      -0.00090501
Ti       5.81380795       2.55670900      14.95694658       0.00411563       0.00580660       0.00975381
Ti       2.99431063       2.55678211      14.95700845      -0.00417375       0.00566057       0.00957812
Ti       0.04632408       5.89257376      15.56249296      -0.00491565      -0.00444532       0.00453632
Ti       2.88971967       5.89252252      15.56254115       0.00495176      -0.00450381       0.00449747
Ti       4.40415249       3.88983297      16.89547745      -0.00006539      -0.00425938       0.01290164
Ti       1.46798751       3.86836008      16.89652252       0.00001475      -0.00631279       0.00877905
Ti       4.40409640       1.02816400      17.00873741      -0.00001404       0.00029667      -0.00320432
Ti       1.46805238       1.04014225      17.06087451       0.00002140       0.00183939      -0.00370900
Ti       0.01534348       5.82644948      18.38965106      -0.00187802      -0.00424431       0.00076765
Ti       2.92076430       5.82644650      18.38968165       0.00192121      -0.00420832       0.00081339
Ti       2.94320993       2.75534596      18.99641577       0.00084831      -0.00368962      -0.00246407
Ti       5.86490133       2.75534285      18.99646262      -0.00084260      -0.00368967      -0.00249838
Ti       4.40402288       0.64440472      20.15364915      -0.00000963      -0.00051001       0.00086238
Ti       1.46801729       0.64137690      20.16742713       0.00007506      -0.00011712       0.00237804
Ti       1.46805279       4.70770134      20.64233899       0.00004360      -0.00380109      -0.00138406
Ti       4.40406947       4.71345753      20.62882037      -0.00010101      -0.00332699      -0.00266377
Ti       2.93782045       2.56243663      21.81960125      -0.00006410      -0.00552279      -0.00261379
Ti       5.87023390       2.56244426      21.81963535       0.00007273      -0.00553338      -0.00256620
Ti       2.93505370       6.51911190      22.42062778       0.00004017      -0.00086752       0.00095581
Ti       0.00095555       6.51908909      22.42064654       0.00000530      -0.00082916       0.00095105
Ti       4.40399995       4.36603531      23.60432976       0.00000457      -0.00256036       0.00513813
Ti       1.46798333       4.36570944      23.60973837       0.00000463      -0.00288108       0.00596248
Ti       4.40401035       1.55180659      24.08706531      -0.00002521      -0.00399060       0.00711448
Ti       1.46799230       1.55013029      24.08797229       0.00003093      -0.00408287       0.00690786
Ti       2.93727103       6.31209803      25.24497727       0.00002843      -0.00271423       0.00532874
Ti       5.87071023       6.31209734      25.24495639      -0.00004480      -0.00271278       0.00529518
Ti       0.00065198       3.27361623      25.85945724      -0.00014596      -0.00073871       0.00507619
Ti       2.93531948       3.27360745      25.85944800       0.00014735      -0.00072942       0.00508011
Ti       1.46797316       1.14545242      27.17529416      -0.00000771       0.00055063      -0.00213161
Ti       4.40398641       1.14533806      27.17333537       0.00000690       0.00045839      -0.00173682
