52
Lattice="5.088765 0.0 0.0 0.0 5.495746 0.0 0.0 0.0 32.722931" Properties=species:S:1:pos:R:3:forces:R:3 job_name=SegregationProfile-C1-V-V-36-d-6.31 top_level=SegregationProfile solute=V energy=-402.8338618 stress_kbar_3x3="_JSON [[-40.02222362, -0.10343304, 0.20412379], [-0.10343305, -31.72369519, 0.55969426], [0.2041238, 0.55969424, -22.06616404]]" pbc="T T T"
Ti       2.62350210       0.79284456      32.71169230       0.00155736       0.00327018      -0.00133471
Ti       0.02801506       1.59793267       1.36852685       0.00158694       0.00043326      -0.00320111
Ti       0.81942350       4.34590244       1.36307184      -0.00066047       0.00103653      -0.00040373
Ti       2.56987598       2.35644333       2.58191151       0.00291390      -0.00072282       0.00154049
Ti       3.36702012       5.10334424       2.58260166      -0.00209478       0.00032037       0.00094068
Ti       0.81357696       0.38801015       3.82766176      -0.00097188      -0.00129625       0.00028303
Ti       0.03656430       3.13653652       3.82770457       0.00143498      -0.00048015       0.00008176
Ti       3.37300791       1.18392737       5.07060962      -0.00021956       0.00024819      -0.00453205
Ti       2.56417688       3.93177093       5.07244143      -0.00027440      -0.00042967      -0.00420641
Ti       0.01050082       4.70381683       6.31353303       0.00178203       0.00055914      -0.00539523
Ti       0.83676776       1.95547102       6.31370245      -0.00093205       0.00102308      -0.00480103
Ti       3.37408963       2.73701019       7.56050455      -0.00147897      -0.00047090       0.00074410
Ti       2.56334459       5.48512038       7.55883326       0.00117355       0.00033088       0.00145167
Ti       0.82973868       3.54061124       8.80748547      -0.00024553      -0.00248198       0.00451433
Ti       0.01973389       0.79256711       8.80848838       0.00097442      -0.00137516       0.00599496
Ti       2.55442258       1.57392825      10.05648437       0.00052142      -0.00075522       0.00160009
Ti       3.38048301       4.32211743      10.05568946       0.00017358      -0.00001008       0.00431823
Ti       0.82797494       5.09291463      11.29974091       0.00033284       0.00040124       0.00229701
Ti       0.01990054       2.34539600      11.29582970       0.00007496       0.00055277       0.00390747
Ti       3.35785260       0.39457485      12.54500553       0.00072153      -0.00295659       0.00231434
Ti       2.58194843       3.14098057      12.54699356       0.00287885       0.00180586       0.00276004
Ti       0.02450865       3.91917689      13.78997052       0.00043123      -0.00258361       0.00288577
Ti       0.82160959       1.17273636      13.79010972       0.00233174      -0.00333677       0.00260610
Ti       2.57532913       4.67758914      15.00470492       0.00119551      -0.00722966       0.00105204
Ti       3.36607802       1.92885917      15.01534044      -0.00054499      -0.00220877       0.00233757
Ti       0.78374022       2.72751230      16.39024190      -0.00157952      -0.00382424       0.00400269
Ti       0.08047863       5.47507741      16.39293194      -0.00161186      -0.00360969      -0.00329828
Ti       3.37806981       1.93625976      17.78455211       0.00082690      -0.00435651       0.00220714
Ti       2.57340745       4.68806643      17.76326712      -0.00086369       0.00141945       0.00705562
Ti       0.05800229       3.91017594      18.96783084      -0.00179877       0.00433927      -0.00042828
Ti       0.81853007       1.14780640      18.98927687      -0.00417573      -0.00410779       0.00580460
Ti       3.37320191       0.32836052      20.26435380       0.00238962      -0.00266754      -0.00186364
Ti       2.55943510       3.10861974      20.26261485      -0.00651576      -0.00535117       0.00064903
Ti       0.83988155       5.08975001      21.47946058      -0.00011751       0.01211900       0.00234898
Ti       5.04322208       2.36691976      21.42751659       0.00988511      -0.00021732      -0.00182922
Ti       2.57377454       1.58742092      22.67844753      -0.00636774       0.00194541       0.00525180
V        3.35779129       4.33542529      22.66079037      -0.00409440      -0.00140578       0.00012695
Ti       5.04168707       0.76392459      23.92084428       0.01000468       0.00061316       0.00174146
Ti       0.80942196       3.53884658      23.87392012      -0.00255165      -0.01385125      -0.00004644
Ti       3.38964267       2.79595699      25.11639686      -0.00049784      -0.00089073      -0.00299951
Ti       2.54331500       0.01679909      25.09074381      -0.01178676      -0.00022618      -0.00398481
Ti       0.84075204       1.97763695      26.36437549       0.00111533       0.00446694      -0.00905822
Ti       0.04526179       4.71161811      26.39423596       0.00148843      -0.00080541      -0.00217784
Ti       2.56630400       3.92462783      27.63310687      -0.00166694       0.00352825      -0.00211101
Ti       3.37603734       1.18075544      27.59708523      -0.00293147       0.00486584      -0.00065455
Ti       0.82079912       0.39994583      28.86899903       0.00026966       0.00429597       0.00235837
Ti       0.03450299       3.13873869      28.85971723      -0.00072566       0.00409210       0.00748962
Ti       2.58245266       2.36191674      30.10449714       0.00067942       0.00608728      -0.00652726
Ti       3.37864655       5.11234362      30.10365804       0.00045353       0.00114167      -0.00330398
Ti       0.82070199       4.35356961      31.32021798      -0.00063484       0.00294367      -0.00768970
Ti       0.04022770       1.60642664      31.33246975       0.00410114       0.00270068      -0.00456868
Ti       3.31697068       3.54056736      32.70894695       0.00404414       0.00311103      -0.00625026
