64
Lattice="5.872 0.0 0.0 0.0 6.890708 0.0 0.0 0.0 27.394398" Properties=species:S:1:pos:R:3:forces:R:3 job_name=SegregationProfile-T1g-Al-Al-43-d-4.72 top_level=SegregationProfile solute=Al energy=-492.03397934 stress_kbar_3x3="_JSON [[-10.97917683, 0.00104542, 0.00082917], [0.00104542, -12.77261403, 0.15058792], [0.00082917, 0.1505879, -17.02247308]]" pbc="T T T"
Ti       4.41227239       5.22120167      27.38498746       0.00079108      -0.00190600       0.00348632
Ti       1.45967969       5.22117171      27.38503151      -0.00070017      -0.00182957       0.00337138
Ti       5.87196060       3.19422328       1.28751499      -0.00007790       0.00386405      -0.00001054
Ti       2.93602624       3.19490903       1.28212892      -0.00000148       0.00433439       0.00341697
Ti       0.00003193       6.63668487       1.90765259      -0.00014785       0.00092976       0.00447855
Ti       2.93594760       6.63412371       1.90072396       0.00002707      -0.00104382       0.00123226
Ti       4.39857566       1.76907679       3.19158986      -0.00022167      -0.00243047      -0.00476605
Ti       1.47335226       1.76909872       3.19158122       0.00029780      -0.00247701      -0.00473284
Ti       1.46849899       4.59724769       3.40823010       0.00104487       0.00329395      -0.00329504
Ti       4.40346195       4.59725208       3.40824908      -0.00087514       0.00313163      -0.00332877
Ti       5.87197947       6.72564456       4.72235329      -0.00001131       0.00519003      -0.00945305
Ti       2.93594151       6.72496272       4.71946765       0.00011073       0.00595819      -0.00903684
Ti       2.93598372       2.87649212       5.32776265       0.00006542      -0.00270161      -0.00201574
Ti       5.87196355       2.87729599       5.32924793      -0.00004692      -0.00271248      -0.00543799
Ti       4.40561161       5.00660148       6.48858778      -0.00101677       0.00166378      -0.00436813
Ti       1.46632157       5.00659466       6.48858490       0.00106555       0.00167382      -0.00441090
Ti       4.40527599       0.93429438       6.96319381      -0.00115021       0.00397560      -0.00205068
Ti       1.46670073       0.93427892       6.96319598       0.00110061       0.00399199      -0.00203621
Ti       2.93598501       3.09471711       8.14453571       0.00007038       0.00308044       0.00083595
Ti      -0.00002194       3.09722930       8.14776582       0.00001868       0.00187481       0.00389212
Ti       2.93597706       6.02740888       8.73733531       0.00012213      -0.00075126       0.00309869
Ti      -0.00000025       6.02534792       8.75393554      -0.00008461       0.00071084       0.00758791
Ti       4.40240154       1.29830620       9.92689623       0.00129536       0.00089357       0.00569653
Ti       1.46960985       1.29828704       9.92689002      -0.00123955       0.00111033       0.00580447
Ti       4.40647227       4.11734280      10.40395546       0.00047493       0.00529837       0.00944494
Ti       1.46553154       4.11735949      10.40395661      -0.00045635       0.00508726       0.00954698
Ti       2.93602423       6.25309524      11.55390511      -0.00001030       0.00729761       0.00635428
Ti       0.00002632       6.25038276      11.58300199       0.00004592       0.00555758       0.00277327
Ti       2.93606137       2.39204819      12.17738681      -0.00015106      -0.00265509       0.00368793
Ti       0.00001041       2.39274117      12.16100120       0.00010528      -0.00295197      -0.00260630
Ti       1.48539298       4.51550273      13.46051769       0.00058614       0.00615237      -0.01174527
Ti       4.38669357       4.51549182      13.46052884      -0.00053689       0.00624771      -0.01165299
Ti       4.36428212       0.47207509      13.71011894       0.00026247      -0.00276636       0.00226471
Ti       1.50779556       0.47210832      13.71010767      -0.00032956      -0.00283705       0.00227246
Ti       0.00005058       2.48498104      15.00343109      -0.00000660       0.00401835       0.00406775
Ti       2.93609993       2.51175005      15.02084062      -0.00006247       0.00742246       0.00403402
Ti       0.00010133       5.88386292      15.52738698       0.00000150      -0.01311760      -0.00671721
Ti       2.93596707       5.89175636      15.61452954      -0.00001578      -0.01086065      -0.01263191
Ti       4.42231691       3.90913464      16.91342128       0.00480905      -0.00522566       0.00917168
Ti       1.44975255       3.90911672      16.91340413      -0.00479244      -0.00502141       0.00936861
Ti       4.39232185       1.02109986      17.09080031       0.00330239      -0.00399897      -0.00489588
Ti       1.47976877       1.02109981      17.09082078      -0.00313347      -0.00399580      -0.00497477
Ti       0.00005993       5.79872545      18.37100452       0.00021917      -0.00569653      -0.00559361
Al       2.93612912       5.80952629      18.42621102      -0.00069142       0.00033202       0.00839025
Ti       2.93605957       2.83808049      19.03902561      -0.00040122      -0.00892679       0.00263157
Ti       0.00003293       2.73119677      19.01561235       0.00007141      -0.00798314      -0.00744246
Ti       4.37510666       0.63932909      20.17806447      -0.00727751      -0.00902390      -0.00960018
Ti       1.49698135       0.63932305      20.17805743       0.00726284      -0.00911126      -0.00956059
Ti       1.48214712       4.74684907      20.65358572       0.00378510       0.00174608      -0.00674001
Ti       4.38993628       4.74685102      20.65356935      -0.00380778       0.00187146      -0.00664449
Ti       2.93602066       2.59504605      21.83033666      -0.00003937      -0.00126372      -0.00698454
Ti       0.00001352       2.58957643      21.82078983       0.00007196       0.00018959       0.00153168
Ti       2.93601519       6.56301141      22.47469855       0.00005361      -0.00063134       0.00270034
Ti       0.00001637       6.54962923      22.43270784       0.00002172      -0.00804208       0.00491226
Ti       4.40966516       4.37895630      23.60837723       0.00070067       0.00401638       0.00107022
Ti       1.46231586       4.37895867      23.60834438      -0.00061895       0.00393424       0.00117660
Ti       4.40403985       1.57463183      24.09685514      -0.00104434      -0.00130008       0.00327152
Ti       1.46796178       1.57463653      24.09685989       0.00110104      -0.00123885       0.00326344
Ti       2.93597295       6.32915479      25.26418006       0.00002651      -0.00268321       0.00391262
Ti      -0.00000382       6.32646925      25.24073274      -0.00001353      -0.00076391      -0.00278510
Ti      -0.00001788       3.28940333      25.86431344       0.00003946       0.00860133       0.00866486
Ti       2.93600490       3.28748829      25.85832822      -0.00001549       0.00443226       0.00576453
Ti       1.46531790       1.15779967      27.17742186       0.00116999       0.00401521       0.00615133
Ti       4.40666445       1.15780658      27.17742758      -0.00114274       0.00405012       0.00618906
