64
Lattice="5.088765 0.0 0.0 0.0 9.739025 0.0 0.0 0.0 22.303587" Properties=species:S:1:pos:R:3:forces:R:3 job_name=SegregationProfile-T2-Al-Al-34-d-0.63 top_level=SegregationProfile solute=Al energy=-492.01685512 stress_kbar_3x3="_JSON [[-2.32688252, -1.83177622, -3.53410849], [-1.83177619, -16.78351061, -1.96636865], [-3.53410847, -1.96636869, -15.9378859]]" pbc="T T T"
Ti       2.53286817       9.26826690      -0.00677875       0.00415776       0.00182526      -0.00146872
Ti      -0.01786672       4.39860417      -0.01012134       0.00076805       0.00019363      -0.00544389
Ti       1.26215847       1.88746375       0.61551108      -0.00748502      -0.00225108       0.00261442
Ti       3.80669605       6.75535219       0.60801953      -0.00564722      -0.00906733      -0.00144721
Ti       2.72571286       4.07235859       1.39955524       0.00157217      -0.01014250       0.00588406
Ti       0.17754994       8.94009182       1.38801357       0.00629445      -0.00548136       0.00608462
Ti       1.03326566       6.20348372       2.11097517       0.00816307      -0.00071692      -0.00415113
Ti       3.58227686       1.34020971       2.11339070       0.00675271       0.00269408      -0.00291091
Ti       0.23253300       3.48426495       2.77054891      -0.00106750      -0.00003991      -0.00440858
Ti       2.77746434       8.34966187       2.76634416      -0.00208961       0.01123149      -0.00509742
Ti       1.12050775       0.86152601       3.49888386       0.00697805       0.00538709       0.00118830
Ti       3.66767664       5.73035458       3.51286763       0.00229036       0.00635300       0.00144899
Ti       2.77582122       3.09431175       4.19121055       0.00113761       0.00247749       0.00424045
Ti       0.22701155       7.96274219       4.17540899      -0.00240690       0.00415636       0.00674810
Ti       3.64657715       0.43755689       4.85170750      -0.00272855       0.00494759       0.00297924
Ti       1.10650338       5.30148485       4.84630186      -0.00136573       0.00960000       0.00774386
Ti       2.78500653       7.53553194       5.58745176       0.00279570       0.00238772      -0.00054521
Ti       0.24298331       2.66301190       5.57525339       0.00377521       0.00628814      -0.00579646
Ti       3.63513688       4.86695897       6.29841152       0.00522680       0.00376609       0.00416058
Ti       1.08084082       9.73313355       6.26499598       0.00287367       0.00933408      -0.00667123
Ti       0.25274934       7.07286195       6.95081253       0.00542397       0.00800316       0.00220312
Ti       2.79661097       2.19535676       6.98364530      -0.00565896       0.00899361       0.00200240
Ti       1.14583979       4.42243331       7.65771509      -0.00054953       0.00381197       0.00164160
Ti       3.68013271       9.29965985       7.69472263       0.00184954       0.00681803      -0.01258727
Ti       0.28047706       1.79493789       8.35544703       0.00290037       0.00640770       0.00192543
Ti       2.79161412       6.67135035       8.39723699       0.00058817       0.00001088      -0.00217126
Ti       1.11693127       8.87667206       9.00947425      -0.00380961       0.00391948      -0.00245318
Ti       3.68240798       3.96864052       9.04608590       0.00361846       0.00240991       0.00379792
Ti       2.75544024       1.32634281       9.84236766      -0.00484335       0.00383630      -0.00399530
Ti       0.25906981       6.23081014       9.70638799       0.00607231      -0.00392354       0.00057322
Ti       3.79891954       8.36705446      10.51260284      -0.00777955      -0.00309782       0.00262359
Ti       1.19161097       3.54599732      10.47636062      -0.00362806      -0.00633349       0.00623830
Ti       0.11871510       0.98556133      11.11694994       0.00397332       0.00633635       0.00480158
Ti       2.51809203       5.83490783      11.26556830      -0.00429079      -0.01268314       0.00545235
Al       3.81964546       3.40120255      11.79872501       0.00247693      -0.00222685       0.00834974
Ti       1.24883519       8.28718109      11.74702353       0.00068400      -0.00548654       0.00420761
Ti       2.36428412       1.13037313      12.67988827      -0.00001409       0.00089818      -0.00071535
Ti       4.99746406       6.00462228      12.45926762       0.00432623      -0.01211163      -0.00398751
Ti       1.50510417       3.91620794      13.26472054       0.00217052      -0.01705078      -0.00246444
Ti       4.08626354       8.82160134      13.24268720      -0.00406578      -0.00614489      -0.00144390
Ti       4.86357066       1.76871408      13.88919306       0.00194261      -0.00061792      -0.00378562
Ti       2.26503692       6.68399417      13.92176095      -0.00224788      -0.00631268      -0.00616263
Ti       1.38610850       9.27580953      14.73469102      -0.00125031       0.00074179      -0.00850545
Ti       3.92657549       4.43638492      14.58455669      -0.00345730      -0.00940682      -0.00521451
Ti       4.82732823       7.03615788      15.34353364       0.00300402       0.00078360       0.00487656
Ti       2.26371392       2.18134823      15.37331674       0.00328426      -0.00328218      -0.01035382
Ti       1.44055732       4.85705798      15.98176167       0.00353293      -0.00538502      -0.00100788
Ti       3.96568300      -0.00912193      15.97486401       0.00220486       0.00327739      -0.00108136
Ti       2.30950632       7.49459547      16.75655384      -0.00989167       0.00480448       0.00070421
Ti       4.83417931       2.64069809      16.71725965      -0.00314372      -0.00298940       0.00312313
Ti       3.98790493       5.29005282      17.43469151      -0.00443810       0.00014049       0.00150186
Ti       1.44021966       0.42584888      17.47106349      -0.00185254       0.00073422      -0.00150543
Ti       4.84637602       7.97340865      18.09892986      -0.00286891      -0.00915630       0.00141383
Ti       2.29299894       3.10081477      18.11929355      -0.00127176      -0.00337434       0.00085798
Ti       1.39940726       5.72386202      18.79477445      -0.00087705      -0.00244177       0.01304054
Ti       3.94428048       0.86211343      18.79422082      -0.00089630      -0.00073229       0.00233699
Ti       2.28583744       8.35699054      19.54897828       0.00307725      -0.00428306       0.00823036
Ti       4.82721613       3.49599029      19.53118098      -0.00558290       0.00432267       0.00767553
Ti       1.48714020       1.35649795      20.18453977       0.00287434      -0.00409838       0.00343387
Ti       4.03370632       6.22103562      20.16847833      -0.00022632       0.00425001      -0.00089648
Ti       4.90709154       8.96097255      20.91260162      -0.00263184       0.00086702      -0.00570102
Ti       2.36050291       4.09739433      20.92379054      -0.00134099       0.00909955      -0.00475177
Ti       3.79832956       1.89773596      21.68742329      -0.00123171       0.00086824      -0.00747816
Ti       1.25136989       6.76215829      21.69096155      -0.00615010      -0.00313915      -0.00990123
