64
Lattice="5.088765 0.0 0.0 0.0 9.739025 0.0 0.0 0.0 22.303587" Properties=species:S:1:pos:R:3:forces:R:3 job_name=SegregationProfile-T2-Al-Al-44-d-4.19 top_level=SegregationProfile solute=Al energy=-492.0399381 stress_kbar_3x3="_JSON [[-1.52280628, -0.65079826, 0.64515098], [-0.65079828, -17.75275133, -0.56655868], [0.64515097, -0.56655867, -17.46108634]]" pbc="T T T"
Ti       2.55704955       9.25383875      22.29006752      -0.00065624       0.00096259      -0.00033155
Ti       0.00961947       4.38795048      22.28575057       0.00235617      -0.00220935       0.00031703
Ti       1.28241264       1.88148002       0.61740361       0.00009287       0.00333996      -0.00494646
Ti       3.82936550       6.75264356       0.60855364      -0.00501473      -0.00165053      -0.00568278
Ti       2.72218123       4.07688006       1.39664887       0.00231470       0.00438366      -0.01097711
Ti       0.16938708       8.95144833       1.38174528       0.00318151       0.00346652      -0.00213839
Ti       1.03859870       6.22051051       2.11453155       0.00335805      -0.00070541       0.00204584
Ti       3.58704095       1.34619737       2.12210782      -0.00073725       0.00396395       0.00204960
Ti       0.22388172       3.50278878       2.75967473       0.00422577       0.00042842       0.00001694
Ti       2.76830675       8.36631058       2.75683608       0.00399780       0.00239616       0.00284435
Ti       1.10996505       0.87093332       3.50040046       0.00215793       0.00473157       0.00535658
Ti       3.65323876       5.74373891       3.50468914       0.00254200      -0.00050031       0.00473576
Ti       2.76040373       3.10766381       4.18931602       0.00173765      -0.00131302       0.00349569
Ti       0.21344120       7.97736494       4.18852057       0.00188835       0.00132711       0.00494788
Ti       3.61286344       0.43336590       4.85095709       0.00088674       0.00455233       0.00110037
Ti       1.06930127       5.30610939       4.85180034       0.00222918      -0.00003795       0.00287847
Ti       2.75056768       7.52051028       5.58409672       0.00404710       0.00159871      -0.00423521
Ti       0.20670509       2.65580055       5.57878217       0.00335362      -0.00022963      -0.00575217
Ti       3.61476071       4.87215054       6.30137614       0.00324974      -0.00204628      -0.00300980
Ti       1.06740492       0.00291754       6.29387228       0.00414122       0.00021541      -0.00353026
Ti       0.21312213       7.06637116       6.97264377       0.00185182       0.00290813      -0.00827258
Ti       2.75397387       2.19984457       6.96305634       0.00010512       0.00366388      -0.00462752
Ti       1.11738136       4.44542980       7.65194470       0.00209170      -0.00155807      -0.00380126
Ti       3.65552872       9.30744780       7.64371646       0.00115864       0.00165778      -0.00027680
Ti       0.22733475       1.81763188       8.38743313       0.00169034      -0.00008827       0.00817534
Ti       2.77957785       6.67975020       8.41116021      -0.00067443       0.00099855      -0.00446237
Ti       1.02949820       8.84151104       9.02094752       0.00041576       0.00069129       0.00451174
Ti       3.59637712       3.96147978       9.02820194      -0.00631622      -0.00163351       0.00560731
Ti       2.71051815       1.22600384       9.76181464       0.00655576       0.00147544       0.01153638
Ti       0.18822265       6.10155925       9.78830626      -0.00070392      -0.00373756      -0.00010201
Ti       3.83493378       8.29263341      10.55092809      -0.00435047       0.00080264       0.01151153
Ti       1.29251002       3.43527224      10.53257438      -0.00898526      -0.00905083       0.00327046
Ti       5.08806014       0.93256725      11.15648603      -0.00933495      -0.00703171      -0.01056553
Ti       2.58616841       5.78480477      11.17785001      -0.00014577      -0.00111161      -0.00395267
Ti       3.83756586       3.42752997      11.76970481       0.00111224      -0.00767533      -0.01236845
Ti       1.28151226       8.30314546      11.72603442       0.00321000      -0.00670772      -0.00929124
Ti       2.37417120       1.20940545      12.55099666      -0.00744177      -0.01341470       0.00077861
Ti       4.94846701       6.11305099      12.58755059      -0.00919778      -0.00805495      -0.01053902
Ti       1.53409073       3.94528396      13.26230269       0.00217265       0.00089383       0.00082370
Ti       4.07832556       8.83174516      13.27082425       0.00273141      -0.00283875      -0.00735291
Ti       4.84717640       1.82923677      13.92983933      -0.00053722      -0.00044547      -0.00240234
Ti       2.27834236       6.70914390      13.94416629       0.00277215       0.00701400      -0.00733480
Ti       1.36568544       9.30923276      14.69418385       0.00034473       0.00807275       0.01157422
Ti       3.91486249       4.46573695      14.69875678       0.00752796      -0.00031222       0.00664458
Al       4.82425703       7.06944047      15.33617632       0.00197634       0.00037268       0.00412684
Ti       2.33414412       2.19064578      15.33708068      -0.00092439       0.00407281       0.00756000
Ti       1.37342121       4.84889712      15.97709468       0.00358852      -0.00122711       0.00142994
Ti       3.97603923       9.70694561      15.97852782      -0.00695011       0.00184668       0.00187749
Ti       2.28853254       7.48451234      16.71457603       0.00293833      -0.00198471       0.01017970
Ti       4.85154800       2.64085416      16.71313140       0.00403664       0.00080997      -0.00306679
Ti       4.02221518       5.30440393      17.43425927       0.00549911       0.00151704      -0.00121424
Ti       1.49592707       0.45659288      17.45330433      -0.00050428       0.00029320      -0.00119767
Ti       4.90111499       7.97197406      18.07983731      -0.00084851       0.00254297      -0.00283817
Ti       2.33019406       3.12349969      18.10384229      -0.00306636       0.00539481      -0.01276114
Ti       1.44818572       5.73170845      18.84501260      -0.00039496       0.00490184      -0.00180032
Ti       3.98639914       0.87713670      18.80571265      -0.00365541      -0.00279981      -0.00420152
Ti       2.33897413       8.37073836      19.50968211      -0.00518151      -0.00119610       0.00612645
Ti       4.86791771       3.49112782      19.52157603      -0.00310052       0.00210063       0.00679220
Ti       1.51368792       1.34649512      20.18692811      -0.00402187      -0.00077396       0.00661285
Ti       4.05610566       6.21707698      20.17131065      -0.00552089       0.00161988       0.00032912
Ti       4.93469659       8.93230100      20.89686857      -0.00751316      -0.00036383       0.00064779
Ti       2.39991716       4.07049368      20.91809428      -0.00500394      -0.00486793       0.00450200
Ti       3.83034264       1.87771275      21.68762872       0.00145281       0.00234007       0.00471021
Ti       1.29081526       6.75168085      21.68203624       0.00178950      -0.00179064       0.00391612
