52
Lattice="4.6568 0.0 0.0 0.0 7.770572 0.0 0.0 0.0 25.044546" Properties=species:S:1:pos:R:3:forces:R:3 job_name=SegregationProfile-CSL7-Al-Al-28-d-1.62 top_level=SegregationProfile solute=Al energy=-397.45745509 stress_kbar_3x3="_JSON [[-15.43234279, -0.69063761, -2.04477878], [-0.69063759, -23.61183149, 0.33198358], [-2.04477875, 0.33198357, -19.8802968]]" pbc="T T T"
Ti       1.81416649       7.40718688       0.70356132      -0.00343081       0.00513086       0.00277013
Ti       4.63769248       5.60900689       1.36743633      -0.00086677       0.00468821       0.00111619
Ti       2.46091189       2.28320238       1.61251085       0.00172230       0.00483146      -0.00014024
Ti       4.57149825       0.63344661       2.08624884      -0.00141712       0.00819592       0.00588369
Ti       2.36563503       5.02014156       2.82815496       0.00438751       0.00289260      -0.00107522
Ti       0.03255615       3.34560383       3.01292468       0.00457251       0.00491416       0.00124857
Ti       2.31735985       0.02048365       3.65362772       0.00686979       0.00626041       0.00060386
Ti       0.04007214       6.11778121       4.09560622       0.00967996       0.00383404      -0.00263854
Ti       2.35102494       2.77244567       4.59454699       0.00568372       0.00240440       0.00357337
Ti       0.01730295       1.12970679       5.00420728       0.00664499       0.00201923      -0.00123928
Ti       2.36199584       5.57981737       5.61893653       0.00801406      -0.00157363      -0.00059208
Ti       0.02264860       3.88395659       5.94649574       0.00782607       0.00028029      -0.00075007
Ti       2.35945202       0.57313362       6.58941541       0.00736456      -0.00165326      -0.00054170
Ti       0.03670266       6.65110441       6.92178317       0.00642292       0.00093423      -0.00109973
Ti       2.35268154       3.33356673       7.52814429       0.00704147      -0.00366769      -0.00041481
Ti       0.04332197       1.68848241       7.94866416       0.00631361      -0.00298204      -0.00476859
Ti       2.38769975       6.11183588       8.44755668       0.00675443      -0.00360361       0.00025056
Ti       0.00605797       4.43612895       8.88370436       0.00777601      -0.00674425      -0.00031759
Ti       2.40659566       1.11116188       9.53665333       0.00340436      -0.00044777       0.00151241
Ti       0.05299260       7.21791977       9.71471101       0.00237738      -0.00197574      -0.00002518
Ti       2.28833661       3.78360313      10.42572669      -0.00747460      -0.00854114       0.00250904
Ti       0.22489139       2.14299072      10.96854036      -0.00688309      -0.00164749      -0.00372456
Ti       2.32042714       6.61198349      11.16195426      -0.00643741      -0.00488660      -0.00338884
Ti       4.14825009       4.80462928      11.79370684       0.00506105      -0.00456591       0.00431053
Ti       2.80362782       1.60562520      12.55476485      -0.00757210      -0.00369941      -0.00997713
Ti       0.40530165       7.59141053      12.56622309       0.00062502      -0.00214441      -0.00609011
Ti       1.27103308       4.74888458      13.17006978      -0.00571434      -0.00078976       0.00577422
Ti       3.11515022       6.46817160      13.89539615      -0.00089001       0.01565787      -0.00167535
Al       0.63239381       2.16857833      14.14885656      -0.00463173      -0.00929852      -0.00342587
Ti       3.07110652       3.72075897      14.66224078       0.00811158      -0.00203913       0.00278251
Ti       0.68207358       7.17568675      15.30658101       0.00349642      -0.00222897       0.00095225
Ti       2.99100271       1.07303321      15.44975243       0.00684570      -0.00267263       0.00877945
Ti       0.70087309       4.41893961      16.15136262      -0.00328819      -0.00244802       0.00111383
Ti       3.00586914       6.10611181      16.59258065      -0.00313577      -0.00871668       0.00237059
Ti       0.67665491       1.69789185      17.08441390      -0.00095830      -0.00240276       0.00302172
Ti       3.02060676       3.34157428      17.53240517      -0.00309175      -0.00445930      -0.00322923
Ti       0.71190166       6.66321123      18.11120735      -0.00324352      -0.00109822       0.00342065
Ti       3.04711185       0.58079925      18.44739592      -0.00607594      -0.00299757       0.00550337
Ti       0.71057931       3.89761151      19.09939827      -0.00459671      -0.00241177      -0.00154484
Ti       3.04171031       5.59381664      19.42964077      -0.00450993      -0.00503900       0.00137592
Ti       0.72892154       1.13903586      20.02883542      -0.00507968      -0.00132745       0.00265017
Ti       3.05386763       2.78166856      20.45925014      -0.00581851      -0.00100201      -0.00447060
Ti       0.70561668       6.12921636      20.94544585      -0.00860824       0.00023746       0.00154626
Ti       3.08768484       0.02875506      21.38024336      -0.00779488       0.00323874       0.00106232
Ti       0.71489348       3.35689325      22.02860308      -0.00682353       0.00211388       0.00114277
Ti       3.04172823       5.03025519      22.21531528      -0.00718676      -0.00030598      -0.00455212
Ti       0.83580547       0.63991234      22.94483490      -0.00279315       0.00838699      -0.00379973
Ti       2.94436635       2.29027986      23.42901498      -0.00215645       0.00430454       0.00021661
Ti       0.77218027       5.61477995      23.67748989      -0.00523637       0.00030889      -0.00392532
Ti       3.59334516       7.40794560      24.33206869       0.00090265       0.00558038       0.00014265
Ti       0.37420700       2.80762167       0.00013371      -0.00048561       0.00095111      -0.00025062
Ti       2.70420386       4.58285391       0.00018770      -0.00169681       0.01020506      -0.00197632
