64
Lattice="5.088765 0.0 0.0 0.0 9.739025 0.0 0.0 0.0 22.303587" Properties=species:S:1:pos:R:3:forces:R:3 job_name=SegregationProfile-T2-Al-Al-43-d-3.50 top_level=SegregationProfile solute=Al energy=-492.13560285 stress_kbar_3x3="_JSON [[-1.02904347, -3.97150009, -0.43706017], [-3.97150012, -16.386815, -1.31986627], [-0.43706017, -1.31986628, -16.95329515]]" pbc="T T T"
Ti       2.58576952       9.29526716       0.09696857      -0.00064599       0.00396739      -0.00821641
Ti       0.03094154       4.42309834       0.09893769       0.00497671       0.00461768      -0.00558158
Ti       1.31029373       1.99115219       0.60508113      -0.00705638       0.00751065      -0.00412958
Ti       3.85755733       6.86288066       0.59039217       0.00101023      -0.00009864      -0.00678892
Ti       2.60254554       4.27840176       1.31017162       0.00085050       0.00475193       0.00465201
Ti       0.06238041       9.14203766       1.30207129       0.00983643       0.00420884      -0.00334990
Ti       1.01334056       6.37862929       2.14224552      -0.00286440      -0.00056617       0.00460108
Ti       3.56826374       1.50843071       2.13892187       0.00269471       0.00520219      -0.00244086
Ti       0.25958388       3.61998843       2.78080904      -0.00825281       0.00010849      -0.00453167
Ti       2.80870428       8.48735890       2.77421645      -0.00792373       0.00099675       0.01016322
Ti       1.09971205       0.93029704       3.48487066       0.00020978      -0.00923242       0.00471682
Ti       3.64227710       5.80434658       3.49192878       0.00139448      -0.00686362      -0.00623154
Ti       2.71552560       3.21195511       4.20948472       0.00092823       0.00180712       0.00614561
Ti       0.17427562       8.08274647       4.21513908       0.00027658       0.00378192       0.00510230
Ti       3.59815976       0.55376544       4.86226545       0.00400355      -0.00979371      -0.00246326
Ti       1.05167108       5.42054983       4.86744492       0.00717337       0.00672283      -0.00197137
Ti       2.74158113       7.62824968       5.54662155       0.00319514       0.00633476       0.00080907
Ti       0.19605445       2.76108514       5.54932110       0.00919516      -0.01090444      -0.00456792
Ti       3.59561684       4.97095169       6.31106609      -0.00759651       0.01058506       0.00628442
Ti       1.05618210       0.11097979       6.31201536      -0.00302482       0.00539266       0.00442611
Ti       0.21205890       7.17327338       6.98257498      -0.00026946       0.01067903       0.00401939
Ti       2.75605904       2.30477469       6.97986388      -0.00376605      -0.00494113       0.00749921
Ti       1.08184257       4.51019870       7.66363156      -0.00333781       0.00054754      -0.00263462
Ti       3.63653301       9.38882550       7.65278833       0.00374953      -0.00370468      -0.00359078
Ti       0.15776156       1.92308560       8.38450276      -0.00033126       0.00016643      -0.01145392
Ti       2.71325018       6.78938985       8.36807831      -0.00051870       0.00526165      -0.00921942
Ti       1.02856967       8.98253272       9.07420546      -0.00418903      -0.00500020      -0.00332248
Ti       3.53969019       4.10579769       9.08190414       0.00212149       0.00023694       0.00405965
Ti       2.75035468       1.39668141       9.71234522      -0.00108733       0.00727252      -0.00243336
Ti       0.21419976       6.23811867       9.70435107      -0.00279053       0.00835321      -0.00528964
Ti       3.75769145       8.37452947      10.52427100       0.00497319       0.01437791       0.00097907
Ti       1.13926309       3.53471551      10.59523997       0.00665889       0.00854172       0.00937696
Ti       5.03343360       0.91675840      11.24970561       0.00138877       0.00437128       0.00978429
Ti       2.52441414       5.81135991      11.17972338       0.00422591      -0.01462834       0.00367135
Ti       3.73666068       3.35037451      11.80343048      -0.00494768      -0.00706695       0.00033696
Ti       1.24240982       8.19929528      11.75908007       0.00658594      -0.01719285      -0.00661577
Ti       2.47834432       1.02086896      12.44777339      -0.00194455       0.01383722       0.00550859
Ti       5.05737135       5.89425068      12.49368454      -0.00725522       0.00465745       0.00609572
Ti       1.52132192       3.75848850      13.34437604       0.00181937      -0.00129762      -0.00211700
Ti       4.08554711       8.64481480      13.29143059      -0.00782130      -0.00093349       0.00442162
Ti       4.78669819       1.65649037      13.93984190       0.00149224      -0.00609752      -0.00560181
Ti       2.40645467       6.57092530      13.92120626      -0.00684558      -0.00325691      -0.00448145
Ti       1.44604112       9.26132163      14.63005832       0.00328203      -0.00367026       0.00608211
Al       4.04951446       4.31220319      14.62521566       0.00360515       0.00257049      -0.00153304
Ti       4.97200855       6.91730360      15.28960712       0.00429723      -0.01860749      -0.00067917
Ti       2.42568885       2.11905121      15.42795955      -0.00388902      -0.00521772       0.00012861
Ti       1.54756244       4.75739333      16.00003459      -0.01071432      -0.00080861       0.00382802
Ti       4.04351392       9.59418588      15.99570404      -0.00145843       0.00566738      -0.00924034
Ti       2.31722652       7.44703777      16.68970992       0.00755921      -0.00546167      -0.00730843
Ti       4.92609600       2.53853997      16.67070181       0.00224238       0.00325232      -0.00946554
Ti       4.00108705       5.18396239      17.41120219       0.00357110      -0.00029103      -0.00202736
Ti       1.47706254       0.33140216      17.45745223      -0.00559235       0.00636925       0.00099625
Ti       4.86783860       7.86271187      18.12321115      -0.00214561      -0.00711203       0.01574586
Ti       2.30961503       2.98647937      18.16909964       0.00436257       0.00041514       0.00142606
Ti       1.44513559       5.65098336      18.76428644      -0.00679816      -0.00814950      -0.00098974
Ti       3.99172879       0.78985990      18.76853861       0.00764297      -0.00974501       0.00487739
Ti       2.37236123       8.23845099      19.51573991       0.00588535      -0.00264720       0.00847656
Ti       4.90811042       3.38543669      19.51205826      -0.00119302       0.00188398       0.00942446
Ti       1.51772864       1.18177972      20.22997117      -0.00152447      -0.00815557      -0.00977221
Ti       4.07432048       6.05940152      20.20648835       0.00300641      -0.00533446      -0.00736961
Ti       4.83311796       8.81021259      20.84474545      -0.00877282       0.00238286      -0.00579342
Ti       2.28206912       3.95568521      20.86563294      -0.00781517       0.00385200      -0.00558568
Ti       3.87417665       1.83737946      21.67548488       0.00527890       0.00345799       0.00896161
Ti       1.33196714       6.70215619      21.68717560       0.00287901       0.00263665       0.00419741
