64
Lattice="5.088765 0.0 0.0 0.0 9.739025 0.0 0.0 0.0 22.303587" Properties=species:S:1:pos:R:3:forces:R:3 job_name=SegregationProfile-T2-Al-Al-45-d-4.19 top_level=SegregationProfile solute=Al energy=-492.04232272 stress_kbar_3x3="_JSON [[-1.38491138, -0.95841973, 0.74527982], [-0.95841972, -17.68288158, -0.38247135], [0.74527984, -0.38247135, -17.29225985]]" pbc="T T T"
Ti       2.55950291       9.26126939      22.29176234      -0.00208186       0.00177684       0.00179478
Ti       0.01447297       4.38847436      22.29699056      -0.00193364       0.00267654       0.00211615
Ti       1.28888534       1.89095635       0.60849958      -0.00030715      -0.00165145       0.00241407
Ti       3.83079997       6.75887098       0.61640510       0.00174891       0.00458042       0.00215858
Ti       2.71233948       4.09297060       1.37941267      -0.00191519       0.00433270       0.00106422
Ti       0.17661770       8.95839199       1.39099950      -0.00194877       0.00489975      -0.00092899
Ti       1.04377411       6.22365672       2.12418487       0.00155569       0.00522593       0.00613121
Ti       3.58494565       1.35869436       2.11714336       0.00014521      -0.00140194       0.00689366
Ti       0.23093934       3.50222541       2.75812869       0.00158107      -0.00088608       0.00339024
Ti       2.77593080       8.37667047       2.75926794       0.00018470       0.00217584       0.00026889
Ti       1.11376499       0.87577047       3.50530570       0.00175429      -0.00138093      -0.00071002
Ti       3.65954574       5.74288236       3.50087246       0.00020683       0.00019494       0.00392051
Ti       2.76129344       3.11225112       4.18907863       0.00106310       0.00098764       0.00246300
Ti       0.21913894       7.98148514       4.18990079       0.00024257       0.00013906       0.00087468
Ti       3.61796138       0.43952701       4.85166132      -0.00203378      -0.00046878       0.00022198
Ti       1.07271517       5.30753797       4.85121734      -0.00444371      -0.00133473       0.00172341
Ti       2.75485409       7.52637386       5.57572314       0.00375860      -0.00040631      -0.00120423
Ti       0.21028297       2.65413710       5.58129718       0.00308732       0.00197765      -0.00080309
Ti       3.61663902       4.87505249       6.29574803      -0.00170088       0.00136375      -0.00060034
Ti       1.07516225       0.00401393       6.30217933      -0.00196288       0.00193829      -0.00119139
Ti       0.21224350       7.07177783       6.96259839       0.00134759      -0.00205701      -0.00390474
Ti       2.75891235       2.19963648       6.96824361       0.00028941       0.00223677      -0.00204562
Ti       1.11521927       4.44155297       7.64325604       0.00094397       0.00020045      -0.00045241
Ti       3.66247698       9.31551869       7.64668861      -0.00104471       0.00164458      -0.00435618
Ti       0.23497968       1.81479089       8.40653613       0.00032621       0.00442957      -0.00296384
Ti       2.77449592       6.69368647       8.38947935      -0.00152659      -0.00503762      -0.00286125
Ti       1.04056682       8.82902365       9.02944981       0.00083888       0.00334450      -0.00441089
Ti       3.56925148       3.97036591       9.01863810       0.00143754       0.00513269      -0.00096124
Ti       2.73442550       1.22339847       9.78171634      -0.00337839       0.00051302      -0.00053169
Ti       0.16769540       6.09198463       9.76646844      -0.00043752      -0.00386361      -0.00346890
Ti       3.83088920       8.29474337      10.54038749      -0.00311624       0.00188966       0.00114250
Ti       1.28721453       3.40998904      10.55538165      -0.00019912      -0.00054732       0.00048325
Ti       0.03675236       0.90191476      11.17651363       0.00326456       0.00084720       0.00180897
Ti       2.53981013       5.78713082      11.15282732      -0.00004149      -0.00537121      -0.00030980
Ti       3.82033831       3.41631918      11.71480407      -0.00080790      -0.00235754      -0.00239033
Ti       1.28335150       8.27550265      11.75987792       0.00006066      -0.00086228       0.00191790
Ti       2.40022404       1.22470452      12.58144896       0.00201234      -0.00139480       0.00163673
Ti       4.90920657       6.05405050      12.55401361      -0.00053031      -0.00711572       0.00283545
Ti       1.55324519       3.95739511      13.26784015      -0.00005603      -0.00075060       0.00206074
Ti       4.08884484       8.81267078      13.26435300       0.00282036       0.00006973       0.00792982
Ti       4.81837389       1.85269522      13.93871889      -0.00221162      -0.00128874       0.00119009
Ti       2.29707871       6.70410500      13.92678420       0.00086272      -0.00021428       0.00359721
Ti       1.36884001       9.34115835      14.70543152       0.00101845       0.00001503       0.00179799
Ti       3.90605385       4.44923957      14.71784766      -0.00228380       0.00008866       0.00181270
Ti       4.87863560       7.06571832      15.33790211      -0.00163673       0.00430027       0.00202147
Al       2.27938378       2.20113637      15.33563576      -0.00229605       0.00001857       0.00167788
Ti       1.41621299       4.83480456      15.97238034       0.00358361       0.00041753      -0.00128799
Ti       3.91658539       9.72107227      15.96871003       0.00144373       0.00018193       0.00098231
Ti       2.30883828       7.50539480      16.70934289      -0.00143330      -0.00076887       0.00083944
Ti       4.83224135       2.60943294      16.72039980      -0.00189962      -0.00161926      -0.00125134
Ti       4.04259087       5.32738026      17.45466788       0.00299592       0.00211694      -0.00084942
Ti       1.48995514       0.43614018      17.43675935       0.00475572      -0.00505107      -0.00156526
Ti       4.87058837       7.99948498      18.09945599      -0.00333833       0.00280400      -0.00408455
Ti       2.35391570       3.10766455      18.08006105       0.00124305      -0.00248834      -0.00453647
Ti       1.43694533       5.75112946      18.80832198      -0.00083855       0.00202977      -0.00233628
Ti       3.99019580       0.86801900      18.85184966      -0.00099532      -0.00364525      -0.00100310
Ti       2.32294886       8.36015734      19.52276010       0.00085377       0.00284731      -0.00217893
Ti       4.88200622       3.50223361      19.51303139      -0.00203777      -0.00163955       0.00002562
Ti       1.50797435       1.34674286      20.17276164      -0.00242462      -0.00735269      -0.00180193
Ti       4.05398010       6.21429746      20.18796370      -0.00215814      -0.00217261      -0.00319322
Ti       4.93646305       8.93091638      20.91526610       0.00312609      -0.00426817      -0.00422371
Ti       2.38048823       4.05665658      20.89531224       0.00227393       0.00010353      -0.00580114
Ti       3.83726924       1.88222234      21.68418549       0.00114053      -0.00469339       0.00093157
Ti       1.28829737       6.74548853      21.68938288       0.00105271       0.00458906      -0.00191874
