64
Lattice="5.088765 0.0 0.0 0.0 9.739025 0.0 0.0 0.0 22.303587" Properties=species:S:1:pos:R:3:forces:R:3 job_name=SegregationProfile-T2-Al-Al-53-d-6.97 top_level=SegregationProfile solute=Al energy=-492.03844429 stress_kbar_3x3="_JSON [[-2.13551773, 0.52981042, -0.59009341], [0.52981044, -18.05755362, -0.61583975], [-0.59009341, -0.6158397, -17.8446042]]" pbc="T T T"
Ti       2.54000362       9.24071697      22.29831838      -0.00017729       0.00505806       0.00389140
Ti       0.03567184       4.38473445      22.28395081      -0.00028557       0.00204020      -0.00185610
Ti       1.28768686       1.87954346       0.60748688      -0.00307216       0.00621911      -0.00393424
Ti       3.82958457       6.73709207       0.62540650      -0.00714616       0.00870271      -0.00483119
Ti       2.72142335       4.07260295       1.37012895       0.00721777       0.00093112      -0.00364171
Ti       0.16284849       8.94466467       1.38962229       0.00631810       0.00719060      -0.00050561
Ti       1.05361763       6.21812878       2.12222712       0.00131106      -0.00086303       0.00041209
Ti       3.58018490       1.33877199       2.12750158      -0.00185275       0.00002308       0.00268766
Ti       0.22737063       3.50370949       2.74798018       0.00741153      -0.00964550      -0.00466778
Ti       2.76761794       8.36750127       2.76594838       0.00440759      -0.00434835      -0.00351688
Ti       1.10865719       0.87378403       3.50433891       0.00148284      -0.00460715      -0.00111134
Ti       3.65577817       5.73733652       3.49905006       0.00366316      -0.00491522       0.00117110
Ti       2.75489508       3.11122312       4.18179990       0.00471285      -0.00197752      -0.00112706
Ti       0.20863825       7.97779489       4.18840251       0.00285726       0.00011578       0.00143921
Ti       3.61256576       0.43687125       4.86005899      -0.00024219      -0.00232386      -0.00289547
Ti       1.06892804       5.30662153       4.85487675       0.00214803      -0.00068556      -0.00268600
Ti       2.75079081       7.52135411       5.57482594       0.00057971       0.00028827       0.00065555
Ti       0.20563676       2.65529235       5.57114219       0.00168855      -0.00012713      -0.00300086
Ti       3.61395438       4.87047551       6.29679355       0.00231737       0.00108353       0.00095872
Ti       1.06971421       0.00257793       6.29751399      -0.00094818      -0.00114237       0.00075927
Ti       0.21377059       7.06978951       6.96303211       0.00311497      -0.00174527      -0.00197002
Ti       2.75550351       2.19954320       6.96349777       0.00544775      -0.00124947      -0.00145275
Ti       1.10665332       4.43251350       7.64945156       0.00097396       0.00343314      -0.00148752
Ti       3.65201133       9.30389299       7.65157473       0.00117621       0.00049296      -0.00325958
Ti       0.22128493       1.80586580       8.39084208       0.00452263       0.00468569       0.00172233
Ti       2.76576185       6.67155495       8.38922413       0.00446314       0.00132986       0.00056837
Ti       1.04488808       8.82981063       9.03014330       0.00020791      -0.00266088      -0.00542981
Ti       3.58708867       3.95667619       9.03519901       0.00093895      -0.00043465       0.00014692
Ti       2.71019184       1.23051415       9.76528046       0.00801762      -0.00270269       0.00231685
Ti       0.17146472       6.10562675       9.75513698       0.00694498      -0.00769525       0.00266196
Ti       3.82048794       8.30165097      10.52969881       0.00337402      -0.00837563       0.00531857
Ti       1.27853927       3.42968773      10.53649261      -0.00152002      -0.00253909       0.00854204
Ti       0.00610725       0.92725994      11.16243359       0.00239704       0.00220626       0.00500446
Ti       2.54884226       5.79355103      11.16451626       0.00650681      -0.00316267       0.00699201
Ti       3.83102208       3.42880687      11.77290288       0.00792117      -0.00119778       0.00421123
Ti       1.28162664       8.30202213      11.77148660       0.00497632      -0.00672635      -0.00026897
Ti       2.38687141       1.24514368      12.55319726       0.00186985       0.00013963       0.00594528
Ti       4.93892289       6.10836675      12.53545489       0.00461075      -0.00467911       0.00502078
Ti       1.50955151       3.95800988      13.28078076      -0.00592702       0.00182623       0.00293132
Ti       4.05198040       8.83083635      13.26549672       0.00137915      -0.00204742       0.00436472
Ti       4.88270064       1.80387172      13.94159183      -0.00499003       0.00466811      -0.00311957
Ti       2.32374462       6.67962618      13.93340615      -0.00369322       0.00091826      -0.00431881
Ti       1.44675532       9.29895181      14.65037932      -0.00590266       0.00262550      -0.00228901
Ti       4.00105603       4.44369261      14.61385645      -0.00608745       0.00104542      -0.00624598
Ti       4.87878719       7.05590446      15.34751136      -0.00699268      -0.00541882       0.00400208
Ti       2.36273717       2.20686792      15.37312663      -0.00932670      -0.00068843       0.00051201
Ti       1.47470259       4.87042153      16.02666237       0.00470509       0.00252269      -0.00736526
Ti       4.04053299       9.71687230      16.00283441      -0.00365992       0.00859171      -0.00291227
Ti       2.31444842       7.52667948      16.74208361      -0.00223077       0.00627443       0.00030800
Ti       4.84193098       2.68198556      16.74209777      -0.00450828       0.00868094      -0.00539166
Ti       3.93337783       5.32461795      17.46681559      -0.00602631      -0.00067910       0.00744550
Ti       1.44980957       0.46675286      17.46855022      -0.01487626       0.00310155       0.00498970
Ti       4.88431374       7.98665399      18.11686490      -0.00844771      -0.00255793      -0.00298100
Al       2.28970331       3.10945532      18.11937888      -0.00291825      -0.00034895      -0.00078653
Ti       1.39018773       5.71907531      18.76667530      -0.00850857      -0.00812765      -0.00913173
Ti       3.92038374       0.87471157      18.77619124      -0.00705115      -0.00644048      -0.01589931
Ti       2.30923392       8.36398567      19.52439677      -0.00566605      -0.01112806       0.00463165
Ti       4.83055396       3.48277479      19.50988823      -0.00467289      -0.01564138       0.00524559
Ti       1.51984340       1.34969275      20.18170762       0.01294673       0.00010767       0.00119578
Ti       4.07191395       6.23479238      20.19395325       0.00011589      -0.00717313      -0.00148623
Ti       4.92282273       8.95675992      20.90613610      -0.00805613       0.01567816      -0.00009442
Ti       2.40458189       4.05693769      20.87241937      -0.00278937       0.00796854      -0.00021690
Ti       3.82769398       1.86619461      21.72070065       0.00009105       0.01298674       0.00719997
Ti       1.29561764       6.74146099      21.68078946       0.00475793       0.01311991       0.00662944
