64
Lattice="5.871999 0.0 0.0 0.0 6.890708 0.0 0.0 0.0 27.401158" Properties=species:S:1:pos:R:3:forces:R:3 job_name=SegregationProfile-T1m-Al-Al-41-d-3.20 top_level=SegregationProfile solute=Al energy=-492.05966097 stress_kbar_3x3="_JSON [[-11.01004935, -1.92e-06, -0.00022145], [-1.94e-06, -10.38351135, 0.55450357], [-0.00022141, 0.55450355, -19.47653537]]" pbc="T T T"
Ti       2.93603900       0.10055207       0.00479620      -0.00012852       0.00122463       0.00772257
Ti       2.93602518       2.93914203      27.39731566      -0.00002272      -0.00054365       0.00264558
Ti       0.00002215       0.10326142       0.00031278       0.00006937       0.00097687       0.01009546
Ti       0.00003083       2.93873376      27.39800185       0.00000898      -0.00082069       0.00139950
Ti       4.40754861       5.02474747       1.40956662       0.00069166      -0.00255027      -0.00284357
Ti       1.46448650       5.02474569       1.40958604      -0.00067745      -0.00249014      -0.00289717
Ti       4.40411694       1.32465606       2.02641354       0.00039555       0.00452673      -0.00466701
Ti       1.46791906       1.32465674       2.02643812      -0.00035935       0.00448600      -0.00475519
Ti       2.93601153       3.41228308       3.20890666      -0.00004250      -0.00370349      -0.00930217
Ti       0.00003592       3.41306698       3.20727899      -0.00000583      -0.00327244      -0.00812280
Ti       2.93600149       6.23131901       3.61382052      -0.00001012       0.00136132      -0.00862514
Ti       0.00003178       6.23082140       3.61560300       0.00000130       0.00088800      -0.00863204
Ti       1.46798084       1.49221901       4.83638592      -0.00170095       0.00535556      -0.00302149
Ti       4.40404611       1.49222296       4.83639694       0.00174109       0.00532315      -0.00304429
Ti       1.46652400       4.44203220       5.44190128      -0.00140747      -0.00247089       0.00057862
Ti       4.40552694       4.44203355       5.44193026       0.00138111      -0.00249706       0.00045284
Ti       2.93601690       6.59463111       6.60350056      -0.00001367       0.00266250       0.00298155
Ti       0.00000493       6.59723054       6.60016431       0.00003826       0.00289368       0.00468159
Ti       2.93601649       2.52113489       7.10370332       0.00000011       0.00142296       0.00299584
Ti       0.00001109       2.52157842       7.10827880      -0.00000498       0.00018251       0.00335068
Ti       4.40492397       4.67414999       8.27031371       0.00029225       0.00087063       0.00152791
Ti       1.46707719       4.67415725       8.27032971      -0.00028176       0.00086889       0.00145895
Ti       4.40828553       0.73989579       8.87505850       0.00058546       0.00153425       0.00238318
Ti       1.46372197       0.73989424       8.87507467      -0.00059184       0.00145331       0.00237276
Ti      -0.00000980       2.89311519      10.09943457      -0.00002322      -0.00272043       0.00306004
Ti       2.93598830       2.88280690      10.09227143       0.00002564      -0.00007473       0.00679802
Ti       5.87199299       5.71059229      10.51747511       0.00003340       0.00137234       0.00498111
Ti       2.93597554       5.71108073      10.50107630      -0.00001604       0.00355642       0.00595216
Ti       1.45407913       0.90902572      11.67918671      -0.00095809       0.00548979       0.00529694
Ti       4.41789441       0.90903820      11.67921078       0.00096867       0.00556640       0.00524150
Ti       1.47832537       4.10844738      12.30702517      -0.00066359      -0.01097833       0.00727937
Ti       4.39364189       4.10844268      12.30703910       0.00066552      -0.01106301       0.00727741
Ti       2.93601570       2.12909817      13.70825304       0.00021677       0.01052337       0.00317023
Ti       0.00000272       2.14159072      13.73476567      -0.00021368       0.00099187      -0.00469940
Ti       2.93599204       6.19038684      13.67261710       0.00003863      -0.00214016      -0.00249347
Ti       5.87198736       6.19108670      13.73940507      -0.00003023       0.00325205      -0.00369365
Ti       4.37679507       4.06051529      15.14716289       0.00324621      -0.01316532      -0.01356487
Ti       1.49523200       4.06055281      15.14720620      -0.00321742      -0.01315143      -0.01360629
Ti       4.42613936       0.90277995      15.72422465       0.00427807       0.01105089      -0.00626842
Ti       1.44589076       0.90275876      15.72422583      -0.00429343       0.01096410      -0.00616405
Ti       2.93601178       5.65388546      16.90790168      -0.00000470       0.00417730       0.00697104
Al       0.00003485       5.70902902      16.86626788      -0.00009467      -0.00425744       0.00796009
Ti       2.93599917       2.81372420      17.33189206       0.00007217      -0.00374075      -0.00275823
Ti       0.00000590       2.92196823      17.32721102      -0.00001151      -0.00681485       0.00220555
Ti       4.44177707       0.68627821      18.52491177       0.00990425       0.00224095       0.00044055
Ti       1.43026616       0.68627977      18.52491348      -0.00988184       0.00218633       0.00043504
Ti       4.42851370       4.68615591      19.10778869       0.01007637       0.00075904       0.00418407
Ti       1.44354107       4.68617021      19.10777709      -0.01011537       0.00075283       0.00421612
Ti       0.00003467       2.53826966      20.25594490       0.00002174      -0.00510084       0.00063239
Ti       2.93604026       2.52303661      20.29568941      -0.00001318      -0.00118056      -0.00240463
Ti       0.00002936       6.61967469      20.83869630       0.00006972       0.00300240      -0.00719227
Ti       2.93603061       6.58556269      20.78020147      -0.00010518      -0.00635849      -0.00212643
Ti       1.46649258       4.43605681      21.94302880      -0.00532244      -0.00106901      -0.00156099
Ti       4.40556891       4.43604707      21.94303290       0.00534296      -0.00105498      -0.00152184
Ti       1.46078626       1.50421703      22.55033425      -0.00808163       0.00261379       0.00234976
Ti       4.41126552       1.50422789      22.55033417       0.00811887       0.00254705       0.00228209
Ti       2.93602634       6.23266890      23.76612172       0.00002548       0.00355129      -0.00165290
Ti       0.00003223       6.23822000      23.77863692      -0.00006099      -0.00035163      -0.00365484
Ti       2.93603298       3.41063099      24.18669844      -0.00004456      -0.00656871      -0.00373029
Ti       0.00003706       3.41426256      24.18759922       0.00001886      -0.00551880       0.00102178
Ti       4.40162882       1.32087100      25.36902628       0.00009586       0.00404524       0.00074818
Ti       1.47041870       1.32087311      25.36907686      -0.00007846       0.00400896       0.00064722
Ti       4.40354667       5.03350169      25.98115508       0.00079183      -0.00255355       0.00258122
Ti       1.46849206       5.03349692      25.98115799      -0.00073871      -0.00247174       0.00262452
