64
Lattice="5.088765 0.0 0.0 0.0 9.739025 0.0 0.0 0.0 22.303587" Properties=species:S:1:pos:R:3:forces:R:3 job_name=SegregationProfile-T2-V-V-49-d-5.58 top_level=SegregationProfile solute=V energy=-495.84505422 stress_kbar_3x3="_JSON [[-3.40662983, -0.00021209, -0.00014752], [-0.00021209, -20.05884527, 0.21403148], [-0.00014752, 0.21403144, -20.82462822]]" pbc="T T T"
Ti       2.55107784       9.25063484      22.30332127       0.00384968       0.00015015       0.00523788
Ti       0.01375171       4.37671141      22.28047889       0.00259647       0.00340271       0.00891752
Ti       1.27585944       1.88101721       0.61186036      -0.00024507       0.00721935       0.00407221
Ti       3.82292501       6.74054008       0.60934869      -0.00074713       0.00710692       0.00667743
Ti       2.71078285       4.08272805       1.37042865      -0.00541470       0.01072234       0.00671393
Ti       0.15926929       8.94621060       1.37272081      -0.00464401       0.00662921       0.00191049
Ti       1.04557539       6.22675200       2.11250681       0.00013145       0.00098217      -0.00052360
Ti       3.59289954       1.35663591       2.11157409       0.00241636       0.00586015       0.01092563
Ti       0.22939591       3.51273742       2.75639718       0.00227689       0.00371019       0.00043861
Ti       2.77453298       8.37591982       2.75707565       0.00150243       0.00021753      -0.00405377
Ti       1.10704271       0.87468251       3.49096309       0.00037626       0.00540248      -0.00019250
Ti       3.65038321       5.74399988       3.49731657       0.00382626      -0.00195917      -0.00708308
Ti       2.75980897       3.10920133       4.18337279      -0.00177103      -0.00230491      -0.00076763
Ti       0.21433400       7.98025388       4.18572427       0.00109365      -0.00174554      -0.00523181
Ti       3.61219951       0.43875415       4.85440995       0.00081031       0.00888014      -0.00816623
Ti       1.06848814       5.30819228       4.85566726       0.00323180      -0.00746190      -0.00460607
Ti       2.75516976       7.52295172       5.57576817       0.00014114       0.00001699      -0.00083575
Ti       0.21189422       2.65342721       5.57580743       0.00620278       0.00050286      -0.00118118
Ti       3.61254611       4.86889159       6.29722678       0.00083693      -0.00853736       0.00575857
Ti       1.06882049       9.73854602       6.29595651       0.00303151       0.00683800       0.00278616
Ti       0.21424489       7.06653736       6.96586756       0.00097245       0.00177610       0.00318531
Ti       2.75969780       2.19855812       6.96807678      -0.00247966       0.00228196      -0.00065173
Ti       1.10711007       4.43335642       7.66029894       0.00048456      -0.00502321      -0.00101714
Ti       3.65048337       9.30307767       7.65406357       0.00390722       0.00116267       0.00542300
Ti       0.22947940       1.79528678       8.39540686       0.00254245      -0.00329416      -0.00148042
Ti       2.77466319       6.67104553       8.39439901       0.00164811      -0.00095360       0.00412039
Ti       1.04534568       8.81992886       9.03912673      -0.00019804      -0.00084104       0.00131175
Ti       3.59264015       3.95077586       9.03991840       0.00192496      -0.00465887      -0.01050116
Ti       2.71074859       1.22464181       9.78128746      -0.00503432      -0.00982050      -0.00618643
Ti       0.15923852       6.10027410       9.77886690      -0.00360106      -0.00665955      -0.00121030
Ti       3.82291447       8.30570723      10.54258375      -0.00083772      -0.00734213      -0.00476460
Ti       1.27585876       3.42643279      10.53983691      -0.00082787      -0.00681038      -0.00184153
Ti       0.01352643       0.93071602      11.17480719       0.00270089      -0.00378955      -0.00622474
Ti       2.55092152       5.79566157      11.15192342       0.00354974      -0.00066025      -0.00310836
Ti       3.82960724       3.44188385      11.79703483       0.00306684       0.00961630       0.00280536
Ti       1.27983098       8.30436115      11.78830313       0.00495504       0.00190561       0.00362549
Ti       2.38146462       1.26636783      12.57990328      -0.00532093      -0.00000040       0.00902294
Ti       4.91415573       6.10765200      12.57441296      -0.00240251       0.00629943       0.00558328
Ti       1.50304648       3.95472180      13.27814324      -0.00438634       0.00763966       0.00587335
Ti       4.03221634       8.84769443      13.27962229      -0.00556804       0.00810785       0.00352425
Ti       4.87780960       1.83244192      13.97181008       0.00553107      -0.00512501       0.00554213
Ti       2.32550044       6.66550143      13.92532377       0.00103245       0.00861934       0.01129466
Ti       1.44733121       9.30528747      14.63986096      -0.00405942       0.00109809       0.00687052
Ti       3.97484199       4.42279663      14.71330228       0.00140994       0.00821871      -0.00282805
Ti       4.86575810       7.09302497      15.34251564      -0.01020871      -0.00281182      -0.00711409
Ti       2.32455124       2.20775954      15.38812114      -0.00106499       0.00864165       0.00366650
Ti       1.40231890       4.86218756      16.01549342      -0.00258672       0.00328720      -0.00416382
Ti       4.01327903       0.03824240      16.04067828       0.00516827       0.00076351      -0.00699588
Ti       2.33897214       7.52278577      16.72743813       0.00444923       0.00141970      -0.00075248
V        4.92975959       2.65395545      16.72750207       0.00022747      -0.00103284      -0.00084412
Ti       4.01345689       5.26979308      17.41457245       0.00541293      -0.00088782       0.00523277
Ti       1.40258753       0.44546710      17.43962530      -0.00259797      -0.00325673       0.00144086
Ti       4.86554364       7.95417134      18.11254719      -0.01108395       0.00226125       0.00454329
Ti       2.32432262       3.10022258      18.06716224      -0.00132089      -0.00989287      -0.00573982
Ti       1.44728475       5.74206842      18.81558426      -0.00390286      -0.00168928      -0.00639800
Ti       3.97475869       0.88530046      18.74192652       0.00175713      -0.00681311       0.00224942
Ti       2.32566091       8.38163972      19.52985411       0.00170868      -0.00868937      -0.01096099
Ti       4.87785344       3.47571053      19.48344834       0.00604779       0.00572097      -0.00569121
Ti       1.50255075       1.35279747      20.17686450      -0.00380063      -0.00755101      -0.00462235
Ti       4.03191078       6.19911129      20.17568265      -0.00636613      -0.00842065      -0.00269378
Ti       4.91428583       8.93877570      20.88049965      -0.00282070      -0.00625095      -0.00323718
Ti       2.38151857       4.04086552      20.87504236      -0.00539648       0.00112425      -0.00645436
Ti       3.82973200       1.86544234      21.65788319       0.00234271      -0.01057050      -0.00012496
Ti       1.28003233       6.74184200      21.66668688       0.00552402      -0.00273092      -0.00050457
