64
Lattice="5.872 0.0 0.0 0.0 6.890708 0.0 0.0 0.0 27.394398" Properties=species:S:1:pos:R:3:forces:R:3 job_name=SegregationProfile-T1g-Al-Al-37-d-1.90 top_level=SegregationProfile solute=Al energy=-492.00388818 stress_kbar_3x3="_JSON [[-9.8042149, -6.57e-05, -0.0001748], [-6.57e-05, -14.6207675, -1.85733309], [-0.00017482, -1.85733312, -15.66719121]]" pbc="T T T"
Ti       4.40873193       5.21201316       0.00151599      -0.00248735       0.00063616       0.01251841
Ti       1.46325862       5.21200741       0.00151881       0.00252773       0.00058047       0.01256404
Ti       5.87199351       3.18026537       1.28285410       0.00001728      -0.00157918       0.00472043
Ti       2.93599009       3.18332414       1.28348156      -0.00000178      -0.00011472       0.00493547
Ti       5.87199552       6.64497140       1.89848157       0.00008219       0.00338512      -0.00373512
Ti       2.93599684       6.64403160       1.89671817       0.00001668       0.00273392      -0.00622418
Ti       4.40148589       1.77562909       3.19570817       0.00027997       0.00051783      -0.00807390
Ti       1.47050652       1.77562435       3.19571251      -0.00030765       0.00049322      -0.00812031
Ti       1.46818170       4.60396513       3.39635244       0.00099075       0.00140015      -0.01270585
Ti       4.40379430       4.60395965       3.39636002      -0.00098543       0.00134691      -0.01271658
Ti       5.87198514       6.73254772       4.71362649       0.00005726       0.00410792      -0.00359881
Ti       2.93599684       6.73104614       4.71192770      -0.00006029       0.00349454      -0.00127681
Ti       2.93599996       2.89445385       5.32208741       0.00002340       0.00127320       0.00193615
Ti      -0.00000793       2.89364554       5.32030558      -0.00001930       0.00081250       0.00200038
Ti       4.40631136       5.02566125       6.48263571       0.00070377       0.00063453       0.00799369
Ti       1.46568293       5.02568495       6.48262786      -0.00069443       0.00067274       0.00797917
Ti       4.40527276       0.94958654       6.95070157       0.00034265       0.00187862       0.00482043
Ti       1.46670939       0.94956392       6.95067026      -0.00034157       0.00178907       0.00490332
Ti       2.93600741       3.11702783       8.14115615       0.00006101       0.00303813       0.00352289
Ti      -0.00001326       3.11890607       8.14169089       0.00000309       0.00535599       0.00598997
Ti       2.93600745       6.04002489       8.72537075      -0.00005577       0.00209695       0.00277445
Ti       0.00000812       6.03953229       8.74806974       0.00004451      -0.00068954       0.00204199
Ti       4.40400326       1.32708334       9.91412564      -0.00012159       0.00224931      -0.00107837
Ti       1.46802393       1.32705316       9.91414979       0.00020100       0.00227361      -0.00102192
Ti       4.40868220       4.12495129      10.41006225       0.00057960       0.00215693      -0.00415259
Ti       1.46334690       4.12500868      10.41009081      -0.00058267       0.00202818      -0.00412888
Ti       2.93599486       6.29603733      11.51123013      -0.00004024       0.00553777      -0.00395034
Ti       0.00004088       6.28381113      11.55081976      -0.00002245       0.00535033      -0.00583909
Ti       2.93600300       2.40340935      12.17580076      -0.00008502      -0.00254471      -0.00285035
Ti       0.00006312       2.40404887      12.17046960      -0.00006351      -0.00297914      -0.00191996
Ti       1.47102005       4.54247377      13.46825440      -0.00183007      -0.00373008      -0.00218672
Ti       4.40099871       4.54254118      13.46827059       0.00194950      -0.00378719      -0.00198109
Ti       4.37339724       0.43804210      13.69048801       0.00236512       0.00682850       0.00126876
Ti       1.49860907       0.43811256      13.69041397      -0.00230280       0.00678803       0.00139377
Ti       0.00004438       2.46923244      14.97872204      -0.00000822       0.00849954       0.00070236
Ti       2.93600754       2.46849763      14.99496962      -0.00006427       0.01040448      -0.00139494
Ti       0.00000088       5.91887463      15.65845099      -0.00020518      -0.01462399       0.01016280
Al       2.93603861       5.92473189      15.59493484      -0.00000164      -0.00398305      -0.00860774
Ti       4.43070490       3.90595958      16.89695961       0.00627541       0.00693906       0.00535556
Ti       1.44132942       3.90589033      16.89699846      -0.00628085       0.00706846       0.00540926
Ti       4.42112781       1.02417400      17.11895522       0.00137746      -0.00366681      -0.00161547
Ti       1.45093191       1.02421739      17.11895638      -0.00137616      -0.00345657      -0.00152754
Ti       0.00001687       5.80402001      18.49874171      -0.00008018      -0.01162949      -0.00521893
Ti       2.93604471       5.79895754      18.40489538       0.00007890      -0.01232284      -0.00392309
Ti       2.93601579       2.81076220      18.97913712      -0.00006890       0.00547468      -0.00107297
Ti       0.00005498       2.75348606      19.02172106       0.00005614       0.00796959      -0.00541118
Ti       4.37410245       0.65133757      20.18958112      -0.00238505      -0.00540075       0.00744183
Ti       1.49794136       0.65138739      20.18957586       0.00240505      -0.00538581       0.00743666
Ti       1.48439022       4.70160107      20.66771162       0.00250834      -0.00249293       0.00328404
Ti       4.38767075       4.70163155      20.66771532      -0.00258397      -0.00254853       0.00330266
Ti       2.93600013       2.55638402      21.83441268       0.00001514      -0.00137136       0.00094403
Ti       0.00003881       2.55999854      21.85916380       0.00001324      -0.00155907       0.00336672
Ti       2.93600723       6.53102097      22.44315176       0.00009588      -0.00345079      -0.00279285
Ti       0.00001955       6.52094701      22.42193778      -0.00002173      -0.00209376       0.00221422
Ti       4.40312887       4.36785824      23.61924901       0.00072096      -0.00023376      -0.00531381
Ti       1.46889130       4.36785532      23.61925688      -0.00068583      -0.00033668      -0.00540788
Ti       4.40186346       1.54884993      24.10417779       0.00082881      -0.00397566      -0.00728603
Ti       1.47016936       1.54885901      24.10416969      -0.00083571      -0.00391522      -0.00724824
Ti       2.93600382       6.31256969      25.26259224       0.00003617      -0.00626212      -0.00036375
Ti       0.00000542       6.31183488      25.24779602      -0.00003764      -0.00702292      -0.00295908
Ti       0.00001432       3.27614539      25.85802575      -0.00001496       0.00502960       0.00061659
Ti       2.93600210       3.27534931      25.86316934       0.00000881       0.00458408       0.00136145
Ti       1.46614964       1.14869580      27.16768746       0.00036972      -0.00711699       0.00639046
Ti       4.40585102       1.14867495      27.16769950      -0.00038331      -0.00715646       0.00635243
