52
Lattice="5.088765 0.0 0.0 0.0 5.495746 0.0 0.0 0.0 32.722931" Properties=species:S:1:pos:R:3:forces:R:3 job_name=SegregationProfile-C1-V-V-28-d-1.38 top_level=SegregationProfile solute=V energy=-404.0639681 stress_kbar_3x3="_JSON [[-42.37701243, -0.01589652, -0.32688727], [-0.01589653, -22.53640044, 3.14024002], [-0.32688729, 3.14023998, -36.69901455]]" pbc="T T T"
Ti       2.55782868       0.14185816      32.66593613       0.01238799      -0.01081453      -0.00219232
Ti       0.49590609       1.69934375       1.25631665      -0.00495703      -0.00420382       0.00211793
Ti       0.35089172       4.44646642       1.25752460       0.00428593      -0.00848034      -0.00226991
Ti       2.50759259       3.05855853       2.61979450       0.00306690      -0.01226969       0.00175620
Ti       3.43162404       0.30938296       2.62049365      -0.00433849      -0.00627104      -0.00529720
Ti       0.89065581       0.33509513       3.68081064      -0.00598193       0.00466402      -0.00423881
Ti       5.05090478       3.08423020       3.68125066       0.00482950       0.00229282      -0.00280701
Ti       3.09403451       1.62897091       5.04088078       0.00045431      -0.00552364      -0.00097243
Ti       2.84885803       4.37675879       5.04480694       0.00320933      -0.00229566      -0.01389282
Ti       0.03726284       5.45473796       6.35172060       0.00236985       0.00204543       0.00081136
Ti       0.81972433       2.70745512       6.35059710       0.00244403       0.00052024       0.00137231
Ti       3.42847265       3.30445138       7.57177845       0.00365197      -0.00332194       0.00708905
Ti       2.52238279       0.55587035       7.57203086      -0.00817206       0.00232852      -0.00016654
Ti       0.79397855       4.11017913       8.84025866       0.00589621       0.00204214      -0.00001007
Ti       0.07108593       1.36070655       8.84116741      -0.00563932       0.00812795       0.00057923
Ti       2.61151062       2.18215063      10.10485949      -0.00015333       0.00505759      -0.00106097
Ti       3.34260624       4.93163666      10.10394422      -0.00263199       0.00168459       0.00540098
Ti       0.89171503       0.23409197      11.36933063      -0.00315661       0.00430964       0.00682394
Ti       5.06400288       2.97664884      11.36838380       0.00074009       0.01476533      -0.00193694
Ti       3.36140051       0.84406770      12.59139331      -0.00099002       0.00693483       0.00725507
Ti       2.59779457       3.59123203      12.58790635       0.00330451       0.00763493       0.00828961
Ti       0.32570657       4.69802248      13.91088296      -0.00075531       0.01819336       0.00535615
Ti       0.54629224       1.95267385      13.91134459       0.00366163      -0.00129325       0.00540772
Ti       2.49404068       0.46178929      15.26784247       0.00131635       0.00969857       0.01000954
Ti       3.45772068       3.26004654      15.27018448      -0.00187823       0.00513551      -0.00163091
Ti       0.91136890       3.35055708      16.32992914      -0.00135724       0.00804858      -0.00563212
Ti       5.03414797       0.53125403      16.31961240       0.00236145       0.00662867       0.00788287
Ti       2.96691051       1.90193347      17.62136228      -0.00548046       0.01374675      -0.00378697
V        2.96907114       4.65720531      17.62116795      -0.00432630       0.00973265      -0.00166934
Ti       5.02129395       3.34100984      18.92068536       0.00394622       0.00727035      -0.01257249
Ti       0.90269133       0.52154041      18.92250183      -0.00059225       0.00700203       0.00217862
Ti       3.44311915       0.45872139      19.97297271      -0.00345062       0.00614465      -0.00100621
Ti       2.47456239       3.25503902      19.97389286       0.00389931       0.01031132      -0.00489075
Ti       0.51427995       4.68265765      21.33154209       0.00276720      -0.00520394      -0.00627964
Ti       0.30957648       1.93277297      21.33337441      -0.00164017      -0.00154662      -0.00809737
Ti       2.57811950       0.80268140      22.64958706      -0.00245037      -0.00067530       0.00032852
Ti       3.33762369       3.55098589      22.65346474       0.00265748      -0.00178678      -0.00683564
Ti       5.04561207       0.18737776      23.87611029       0.00100820      -0.00194327      -0.00314382
Ti       0.87641795       2.93370167      23.88115949      -0.00229030      -0.00526483      -0.00833907
Ti       3.32606767       2.12024798      25.13640872       0.00078073      -0.00824319       0.00227241
Ti       2.59933851       4.86825822      25.13899516       0.00237178      -0.00775524      -0.00916269
Ti       0.78466287       1.26442264      26.40813669      -0.00165267      -0.00726558       0.00666776
Ti       0.04936708       4.01207490      26.41143881       0.00038223      -0.00454686       0.00109550
Ti       2.53022748       3.22552428      27.66072036      -0.00127824      -0.00693634       0.00957477
Ti       3.39574212       0.47895749      27.66291475       0.00217910      -0.00838302       0.00651214
Ti       0.80091944       5.25073366      28.89713908      -0.00071875      -0.00439406      -0.00137000
Ti       0.04037693       2.50208725      28.89636076      -0.00266137      -0.00255870       0.00050468
Ti       2.67718624       1.57108203      30.19347599       0.00178884      -0.00734937       0.00306418
Ti       3.25423298       4.31926849      30.19090861      -0.00686026      -0.00748195       0.00584855
Ti       0.87667328       3.34505024      31.48332807       0.00030873      -0.01182298       0.00517059
Ti       5.05349337       0.59676333      31.48637361       0.00266331      -0.01191615      -0.00470452
Ti       3.37368787       2.88907906      32.66413380      -0.00531988      -0.00477237       0.00059687
