52
Lattice="4.6568 0.0 0.0 0.0 7.770572 0.0 0.0 0.0 25.044546" Properties=species:S:1:pos:R:3:forces:R:3 job_name=SegregationProfile-CSL7-Al-Al-29-d-2.09 top_level=SegregationProfile solute=Al energy=-397.31924646 stress_kbar_3x3="_JSON [[-14.80085193, -2.33445917, 2.65437203], [-2.33445918, -24.24613851, -1.37695567], [2.65437205, -1.37695568, -18.36696166]]" pbc="T T T"
Ti       1.81615981       7.39046731       0.70508107      -0.00020432      -0.00253996       0.00171462
Ti       4.63101154       5.59741328       1.36135728       0.00041448      -0.00209147      -0.00361058
Ti       2.45895142       2.27235953       1.60514328       0.00057092      -0.00401761       0.00364860
Ti       4.56701567       0.62459213       2.07545513      -0.00160291      -0.00401184      -0.00010941
Ti       2.35902521       5.00734241       2.82258393      -0.00161202      -0.00269710      -0.00042898
Ti       0.02387211       3.33567965       3.00796126      -0.00278622      -0.00514382       0.00129359
Ti       2.30878012       0.00923907       3.64435024      -0.00229250      -0.00156984       0.00071815
Ti       0.03003572       6.10266887       4.08848168      -0.00231798      -0.00234349      -0.00058575
Ti       2.33676000       2.76029132       4.59316385      -0.00497510      -0.00320961       0.00171362
Ti       0.00289657       1.11359230       4.99049523      -0.00618702      -0.00202237      -0.00243023
Ti       2.34387117       5.56305691       5.61471965      -0.00458467      -0.00026576      -0.00057648
Ti       0.00194120       3.86693873       5.94356549      -0.00571114      -0.00163608      -0.00263237
Ti       2.33180136       0.55869454       6.57183582      -0.00833803       0.00293732      -0.00035006
Ti       0.00427703       6.63498557       6.91280571      -0.00429890       0.00253064      -0.00554267
Ti       2.31554318       3.31219570       7.52930211      -0.00641329       0.00381244       0.00163556
Ti       4.65281894       1.66518474       7.91914074      -0.00914286       0.00232505      -0.00317117
Ti       2.32631423       6.09707516       8.44117341      -0.00286909       0.00825894      -0.00853602
Ti       4.59328916       4.42032043       8.87784842       0.00372635       0.00304933      -0.00530993
Ti       2.33844604       1.09437952       9.50327601      -0.00760481       0.00896092      -0.00205285
Ti       4.63611526       7.18783240       9.70627726      -0.00036782       0.00524498      -0.00688939
Ti       2.19617038       3.81714937      10.44067546      -0.01219240      -0.00697800      -0.00548438
Ti       0.10801329       2.15650438      10.88677057       0.00678593       0.00596146      -0.01296960
Ti       2.24683213       6.62618843      11.17641071      -0.00739108       0.01170735       0.00184674
Ti       4.00799061       4.79843953      11.84906843       0.01375330      -0.00099993       0.00871838
Ti       2.76132137       1.69430567      12.52279153      -0.00567943      -0.00213015       0.00493278
Ti       0.34208163       7.68404092      12.54145102      -0.00546573      -0.00050809       0.00458906
Ti       1.15554180       4.92310584      13.28861372      -0.01066905       0.01088425       0.01217337
Ti       3.07355709       6.66780096      13.89991307       0.00917251      -0.00600388       0.00248220
Ti       0.72764840       2.21350845      14.16924727       0.00133553       0.00775257       0.00778562
Al       3.23945383       3.85822204      14.57316241      -0.00153721      -0.00273951      -0.00459676
Ti       0.75432578       7.24920015      15.36662944       0.00184772       0.00096000      -0.00560544
Ti       3.11876865       1.17779853      15.56626646       0.00214405      -0.00409845      -0.00147473
Ti       0.86895258       4.39515929      16.11067109      -0.00542888       0.00216541      -0.00522631
Ti       3.06258538       6.10517008      16.57243591       0.00591865       0.00354064      -0.00063362
Ti       0.79344572       1.64754263      17.19518998       0.00084004      -0.00135534       0.00058870
Ti       3.11674232       3.31383974      17.48466069       0.00542715      -0.00663404       0.00192348
Ti       0.74478527       6.60045699      18.12015062       0.00447823      -0.00037405       0.00158529
Ti       3.09761886       0.53652816      18.47543549       0.00339271       0.00173517       0.00327367
Ti       0.75872032       3.86153172      19.08974495       0.00773059      -0.00384679       0.00040095
Ti       3.06679371       5.55009438      19.41789604       0.00789851      -0.00312723       0.00185930
Ti       0.76395536       1.08349911      20.07139162       0.00517311       0.00240603       0.00076703
Ti       3.07509486       2.73834573      20.42310094       0.00628592      -0.00085727       0.00121986
Ti       0.72957417       6.09223353      20.94744832       0.00607840      -0.00168918       0.00072633
Ti       3.11413478       7.76133036      21.40234731       0.00351090       0.00212557      -0.00115155
Ti       0.72690787       3.32596295      22.01347702       0.00624285       0.00084734       0.00413598
Ti       3.05330459       4.98749423      22.20334736       0.00389768       0.00194231       0.00461504
Ti       0.84973898       0.61221070      22.96468307       0.00320108      -0.00370753      -0.00054644
Ti       2.95377026       2.26949344      23.41107052       0.00069942      -0.00130579       0.00403295
Ti       0.77751551       5.58735188      23.66934715       0.00471824      -0.00077726       0.00375526
Ti       3.59211945       7.38866937      24.33358531       0.00197542      -0.00468966      -0.00222394
Ti       0.37444569       2.79885858      25.03766144       0.00139328      -0.00287079       0.00193481
Ti       2.70365453       4.56486796      25.03895983       0.00105949      -0.00290584      -0.00193224
