100
Lattice="4.4265 -2.555641 0.0 3.767997 6.526363 -0.031456 0.0 0.0 45.781652" Properties=species:S:1:pos:R:3:forces:R:3 job_name=SegregationProfile-CSL13-V-V-54-d-2.65 top_level=SegregationProfile solute=V energy=-775.53119426 stress_kbar_3x3="_JSON [[-36.69527945, -1.94191844, 0.58777251], [-1.94191851, -40.26621965, 1.2800426], [0.58777256, 1.28004261, -18.82594141]]" pbc="T T T"
Ti       2.48024978      -0.89229848       0.02142966      -0.00191991      -0.00477355      -0.00118396
Ti       5.77325655       1.55724955       0.00568516      -0.00244596      -0.00415016      -0.00105265
Ti       4.99557374      -0.80085761       1.38351582      -0.00307142      -0.00272940       0.00016538
Ti       4.59452305       3.78152628       1.36781566      -0.00059366      -0.00426218       0.00045113
Ti       7.10598109       3.86764150       2.62447462      -0.00017505      -0.00609166      -0.00271715
Ti       3.81428716       1.41717588       2.64026812      -0.00487081      -0.00316327      -0.00231899
Ti       1.66789474      -0.43754020       2.87900198      -0.00216376      -0.00436182      -0.00178197
Ti       2.14654931       3.63709708       2.86337795      -0.00267363      -0.00407243      -0.00213741
Ti       4.73513871       3.65643715       4.16517537      -0.00179994      -0.00332716      -0.00419592
Ti       4.81700755      -0.74157488       4.18077874      -0.00247730      -0.00323217      -0.00396171
Ti       3.44718280       5.87271347       5.24969762      -0.00348174      -0.00246170      -0.00143349
Ti       2.95350205       1.80704552       5.26540878       0.00004064      -0.00433232      -0.00176904
Ti       2.40834083      -0.95220961       5.75874075      -0.00043952      -0.00153748      -0.00050412
Ti       5.75659686       1.46546955       5.74296887      -0.00094131      -0.00132618      -0.00048707
Ti       4.27771828       3.76394460       6.95437721      -0.00260973      -0.00133373      -0.00217114
Ti       5.13858358      -1.08381163       6.96995946      -0.00057977      -0.00302849      -0.00197259
Ti       6.92513503       3.59424627       7.85132767       0.00307261      -0.00189271      -0.00114182
Ti       3.66733573       1.12405524       7.86725163      -0.00308841       0.00052108      -0.00073001
Ti       6.37494578       0.88737506       8.61241083       0.00264698      -0.00091074      -0.00079226
Ti       1.59811261      -0.70612402       8.62797590      -0.00141130       0.00220784      -0.00135370
Ti       4.78869806       3.17977167       9.68569545      -0.00138040      -0.00085419      -0.00014185
Ti       4.37782809      -0.93354474       9.70174342       0.00005827      -0.00153683       0.00001008
Ti       3.17369667       5.41026234      10.48130485      -0.00125165       0.00112176       0.00190704
Ti       2.68927601       1.33967502      10.49815224       0.00253839      -0.00044418       0.00112526
Ti       5.89607819       5.19806136      11.43617413       0.00272619      -0.00219866       0.00065511
Ti       5.57072714       1.03379235      11.45254314      -0.00153334       0.00127901       0.00119183
Ti       0.58731675       0.91243428      12.37687341      -0.00100848       0.00218294       0.00009824
Ti       3.85800121       3.37768770      12.35898990       0.00169352      -0.00234375       0.00136402
Ti       3.30389852       0.65181089      13.18680736       0.00067905       0.00317553       0.00123137
Ti       6.69980155       3.04334281      13.17036882       0.00053093       0.00009316       0.00070708
Ti       5.09289937       5.35839722      14.27945171      -0.00326048       0.00055919       0.00327676
Ti       6.11706589       0.41764043      14.29420732       0.00183706      -0.00076807       0.00222355
Ti       4.54082169       2.63713546      14.97645755      -0.00230865       0.00245059       0.00151750
Ti       4.03672137      -1.41649935      14.99671767       0.00299634      -0.00202345       0.00351146
Ti       7.16578488       2.51021469      15.91925614       0.00535205       0.00142477       0.00206509
Ti       2.60784787       0.78881173      15.93515591       0.00066936       0.00236419       0.00549026
Ti       5.74493810       4.79237958      17.15947734       0.00078644       0.00411458       0.00180061
Ti       5.30683847       0.70092753      17.17640911      -0.00072816      -0.00245332      -0.00038836
Ti       3.61862137       2.94157771      17.58261371       0.00148304       0.00260522      -0.00502523
Ti       0.33798328       0.48315454      17.60290085       0.00141056       0.00334753       0.00128667
Ti       2.88841087       0.50330628      18.73194854      -0.00281982      -0.00100227       0.00230600
Ti       6.79722568       2.60521266      18.72172565       0.00623002       0.00680087       0.00983129
Ti       4.93223294       5.19657133      20.03542674      -0.00052239       0.00762497       0.00676282
Ti       1.64537048       2.75024913      20.04668533       0.00358050       0.00359010       0.00515865
Ti       4.39613661       2.41155141      20.21276928       0.00287931       0.00335954       0.00870383
Ti       3.92639838      -1.66148569      20.24339862       0.00170360      -0.00750447       0.00703416
Ti       6.89855084       2.51345400      21.50756512       0.00618274       0.01061519      -0.00662834
Ti       2.74706308       0.54846248      21.51816811      -0.00292274       0.00045597      -0.00140337
Ti       3.58253243       2.86063838      22.87701786       0.01298503       0.00689061      -0.00417296
Ti       0.29498027       0.41424480      22.97335818      -0.00415290      -0.00175118      -0.00385645
Ti       5.73547738       4.71760877      22.89573201      -0.00430209      -0.00386896      -0.00162537
Ti       5.25242545       0.64788395      22.89985228      -0.00061801       0.00529262       0.00034505
Ti       2.77223288       0.52062739      24.29875038      -0.00323117      -0.00121190      -0.00264365
Ti       6.89914336       2.52540490      24.29842529       0.00501607       0.00621072       0.00670002
V        3.89248027      -1.70429320      25.55258567      -0.00427902      -0.00655281      -0.00157946
Ti       4.34425421       2.43854554      25.52051229       0.00460213       0.01199065      -0.00254699
Ti       5.95907851       0.11935348      25.75261876       0.00286809       0.00653009       0.00160642
Ti       4.94053809       5.22392886      25.72050877      -0.00083819      -0.00001952       0.00211687
Ti       2.97501569       0.45427300      27.06957911       0.00118954      -0.00309990       0.00479467
Ti       6.71810360       2.65294566      27.04257961       0.00421528       0.00446491      -0.00372644
Ti       0.36330777       0.53652101      28.07386579      -0.00215421      -0.00001611      -0.00060644
Ti       3.61430167       2.98091282      28.09807175       0.00614757       0.01102673      -0.00205417
Ti       5.33713637       0.72756070      28.67322106       0.00025927       0.00447872       0.00294319
Ti       5.71538396       4.83535257      28.60015425       0.00008989       0.00041872       0.00379553
Ti       7.25939026       2.52356551      29.81694405       0.00669917       0.00784894      -0.00341429
Ti       2.56378325       0.87318556      29.83610802      -0.00383318      -0.00165626       0.00186189
Ti       4.58844444       2.73405442      30.69070880       0.00193343       0.00849084      -0.00503243
Ti       4.06665875      -1.33237513      30.69046529       0.00156065      -0.00033573      -0.00372758
Ti       6.12607187       0.49675338      31.49605897       0.00224166      -0.00243541       0.00081388
Ti       5.14481080       5.41821114      31.47840234       0.00326146       0.00516652      -0.00257340
Ti       3.38228571       0.70800492      32.54948371      -0.00068584       0.00143287      -0.00066437
Ti       6.71188028       3.14218605      32.53673401       0.00510930       0.00677453      -0.00242379
Ti       3.92134762       3.45442566      33.32607457       0.00047415       0.00163085       0.00043835
Ti       0.62331887       1.01798641      33.33603874       0.00111059       0.00365654      -0.00134518
Ti       2.17002571      -1.24267519      34.35570519       0.00405162       0.00334696      -0.00075459
Ti       5.61869521       1.11600408      34.33820588      -0.00202698       0.00039013       0.00283327
Ti       3.24144855       5.49761170      35.18875714       0.00119011       0.00405111      -0.00242907
Ti       2.73032206       1.44044046      35.20512941       0.00230325       0.00118690      -0.00458174
Ti       4.79024866       3.28866929      36.02575483      -0.00187200       0.00083185      -0.00142352
Ti       4.46879069      -0.87787525      36.03982438       0.00158375      -0.00092123      -0.00512714
Ti       6.42515412       0.94142184      37.18790833       0.00117722      -0.00079358       0.00032819
Ti       1.62034283      -0.63455839      37.20403582      -0.00190199       0.00070409       0.00121914
Ti       6.97883784       3.67858205      37.78816995       0.00212438       0.00104417      -0.00208735
Ti       3.71485241       1.21366555      37.80499168      -0.00104336       0.00167245      -0.00374325
Ti       4.38388686       3.76611884      38.78688700       0.00082018      -0.00301699       0.00377635
Ti       5.08695596      -0.99056434      38.80216485      -0.00357411      -0.00149341       0.00368880
Ti       5.74917350       1.49738328      40.07014836      -0.00280441      -0.00335968       0.00311380
Ti       2.43981718      -0.94357603      40.08604106      -0.00143414      -0.00413100       0.00294274
Ti       3.46182390       5.90879855      40.39114115      -0.00426039      -0.00268450       0.00122780
Ti       2.97769636       1.83714961      40.40680076      -0.00062094      -0.00537948       0.00134363
Ti       4.68301264       3.69514977      41.58964433      -0.00551779      -0.00134778       0.00238387
Ti       4.87662735      -0.76797942      41.60536228       0.00083171      -0.00587052       0.00248252
Ti       2.14658927       3.63553911      42.93369140      -0.00195381      -0.00482716       0.00065397
Ti       1.66690169      -0.43846669      42.94947476      -0.00296369      -0.00429265       0.00085958
Ti       7.10981672       3.86710815      43.04402099       0.00100602      -0.00857849      -0.00210829
Ti       3.81228853       1.41997901      43.05979687      -0.00783314      -0.00337365      -0.00171261
Ti       4.62036956       3.76382163      44.37318563      -0.00057534      -0.00273748      -0.00273652
Ti       4.96740867      -0.78762810      44.38909006      -0.00204488      -0.00248662      -0.00253200
Ti       3.48792840       5.97391494      45.73220019      -0.00827399      -0.00285009      -0.00281675
Ti       3.02107750       1.89232271      45.74795243       0.00132579      -0.00821810      -0.00280677
