52
Lattice="5.088765 0.0 0.0 0.0 5.495746 0.0 0.0 0.0 32.722931" Properties=species:S:1:pos:R:3:forces:R:3 job_name=SegregationProfile-C1-Al-Al-33-d-5.07 top_level=SegregationProfile solute=Al energy=-399.11488464 stress_kbar_3x3="_JSON [[-36.15406843, -0.1932623, -1.88714952], [-0.19326232, -30.28148247, -0.55856033], [-1.88714952, -0.55856034, -18.82946115]]" pbc="T T T"
Ti       2.63773002       0.79086081      32.68393234       0.00220797       0.00127166      -0.00454468
Ti       0.05123308       1.59787732       1.36593006      -0.00062706      -0.00003447      -0.00069032
Ti       0.83135719       4.35095978       1.37396133       0.00175912      -0.00058896       0.00078467
Ti       2.57034455       2.35850700       2.59056907       0.00092741      -0.00156838       0.00180243
Ti       3.36590664       5.11007936       2.58039669       0.00013870       0.00091154       0.00271818
Ti       0.81357228       0.38801584       3.83779071      -0.00001761       0.00064728       0.00003623
Ti       0.03655152       3.13531800       3.81942679       0.00082160      -0.00015375       0.00021335
Ti       3.38194905       1.18465127       5.07168764       0.00170485      -0.00016854      -0.00237079
Ti       2.57639154       3.93026957       5.07169942      -0.00050325      -0.00051965      -0.00286495
Ti       0.01346246       4.70091005       6.32434272       0.00094834       0.00039049      -0.00073427
Ti       0.83418154       1.95948180       6.30512585      -0.00071043      -0.00057240      -0.00162170
Ti       3.37527570       2.73862134       7.57675657       0.00141850      -0.00024886       0.00076739
Ti       2.56836900       5.48988170       7.54850128       0.00026408       0.00139935       0.00071678
Ti       0.86120309       3.54404132       8.81260140      -0.00028101      -0.00114955       0.00023598
Ti       0.04522208       0.79420630       8.80561463       0.00073563       0.00079768      -0.00033806
Ti       2.56895217       1.56084732      10.07487547       0.00065905      -0.00091062       0.00198258
Ti       3.39545950       4.32692782      10.03433186      -0.00046962       0.00026224       0.00123233
Ti       0.82181828       5.09227636      11.32678460       0.00235851      -0.00014301       0.00037129
Ti       0.03412102       2.35297779      11.26584281      -0.00090071      -0.00062522       0.00047064
Ti       3.41574648       0.41270827      12.57481006      -0.00154337       0.00257513       0.00149535
Ti       2.63180040       3.16030094      12.52603954       0.00046606      -0.00173208       0.00027232
Ti       0.05131102       3.90880897      13.83495080       0.00061132      -0.00386436       0.00087580
Ti       0.87460080       1.17494347      13.72672370       0.00204669       0.00264026      -0.00071471
Ti       2.55144898       4.68763237      14.95807206      -0.00000964      -0.00014050      -0.00110492
Ti       3.25124063       1.94142890      15.04043055      -0.00163439       0.00013666       0.00161401
Ti       0.75613939       2.81618720      16.57417056      -0.00181914       0.00145691      -0.00080742
Ti       0.14214561       0.07328134      16.20798471      -0.00058250       0.00152755      -0.00189137
Ti       3.37377869       1.86937202      17.78415922      -0.00013302       0.00750360      -0.00461719
Ti       2.77055730       4.64480949      17.68105581       0.00049666      -0.00677932       0.00234994
Ti       4.95445199       3.84336008      19.08505381      -0.00354508      -0.00353436      -0.00410235
Ti       0.80930314       1.07990282      18.94449662       0.00075447       0.00461795      -0.00710350
Ti       3.28273053       0.46974435      20.26749845       0.00118841      -0.00372768      -0.00173786
Ti       2.41130767       3.23490301      20.04682799       0.00321691       0.00515046      -0.00435746
Al       0.75706621       5.09113870      21.44444932      -0.00223350      -0.00297349       0.00032308
Ti       0.11606255       2.33927844      21.43500303       0.00121555       0.00438164       0.00437930
Ti       2.41657431       1.47782985      22.79165807      -0.00175367      -0.00088940       0.00915548
Ti       3.30231158       4.21947603      22.59784096      -0.00532016       0.00131660       0.00598912
Ti       4.98687495       0.81693068      23.83656421      -0.00120731      -0.00047471       0.00385210
Ti       0.83613316       3.57397167      23.92056655       0.00168458       0.00167497       0.00125130
Ti       3.39822752       2.76954685      25.15501866       0.00028046      -0.00081437      -0.00364989
Ti       2.62825981       0.00204585      25.16765808       0.00085968      -0.00081864      -0.00314885
Ti       0.83506882       1.93068689      26.33401613       0.00022473       0.00033066      -0.00178293
Ti       0.02804931       4.69430876      26.44130336      -0.00058117      -0.00137068      -0.00561649
Ti       2.55037595       3.92796633      27.63043853       0.00011325       0.00181440       0.00131839
Ti       3.38008895       1.20520345      27.64972499      -0.00184936      -0.00312044       0.00000300
Ti       0.84274269       0.40301453      28.88275323       0.00139757       0.00072839       0.00377515
Ti       0.06984834       3.13650225      28.85657480       0.00114711      -0.00147438       0.00549530
Ti       2.60349116       2.35186044      30.14276443      -0.00048974      -0.00048168       0.00281463
Ti       3.39042005       5.10244646      30.10435452      -0.00050077       0.00028035       0.00470172
Ti       0.82134177       4.34811438      31.33928165      -0.00196204      -0.00154348      -0.00135333
Ti       0.02940551       1.59607278      31.32908850       0.00024277       0.00066762      -0.00072945
Ti       3.33369819       3.53841652       0.01470187      -0.00121545      -0.00206043      -0.00511535
