64
Lattice="5.872 0.0 0.0 0.0 6.890708 0.0 0.0 0.0 27.394398" Properties=species:S:1:pos:R:3:forces:R:3 job_name=SegregationProfile-T1g-V-V-33-d-0.00 top_level=SegregationProfile solute=V energy=-496.05255915 stress_kbar_3x3="_JSON [[-11.53750241, -0.00152407, 0.00069928], [-0.00152408, -13.48547167, 4.09352751], [0.00069927, 4.09352752, -21.23857147]]" pbc="T T T"
Ti       4.40415512       5.21490724      27.39067744       0.00001697       0.00236839       0.00238202
Ti       1.46789426       5.21516569      27.39156706      -0.00001479       0.00243924       0.00126988
Ti       0.00098480       3.18984654       1.29186208       0.00032440       0.00034485       0.00111950
Ti       2.93505896       3.18989516       1.29175621      -0.00031480       0.00034952       0.00125025
Ti       0.00040184       6.63136492       1.91439837       0.00038655      -0.00009357       0.00109570
Ti       2.93556888       6.63125967       1.91429592      -0.00044445      -0.00004824       0.00108608
Ti       4.40393635       1.76947041       3.20265426       0.00000407       0.00174106       0.00057744
Ti       1.46815030       1.76930593       3.20677419       0.00003440       0.00072619      -0.00169303
Ti       1.46791930       4.59394908       3.42145856      -0.00000749       0.00175566       0.00067897
Ti       4.40388264       4.59541709       3.42382016      -0.00000756       0.00140857      -0.00137508
Ti      -0.00150150       6.72849534       4.73788044      -0.00006997      -0.00560679      -0.00032698
Ti       2.93741779       6.72850645       4.73777885       0.00008157      -0.00566215      -0.00031334
Ti       2.93612264       2.87547246       5.34946188       0.00050846       0.00219740       0.00056457
Ti       5.87183772       2.87548031       5.34944506      -0.00049189       0.00223161       0.00050876
Ti       4.40402640       5.00730675       6.50670034       0.00001246      -0.00010179      -0.00043251
Ti       1.46798185       5.00657391       6.50778743       0.00001460      -0.00073892      -0.00205666
Ti       4.40394485       0.93507005       6.99245051       0.00003067       0.00075437      -0.00103333
Ti       1.46794666       0.93903930       6.98915329      -0.00002616       0.00055041      -0.00144169
Ti       2.93955242       3.09259901       8.18189240       0.00220126      -0.00300749      -0.00257218
Ti       5.86844385       3.09268264       8.18189253      -0.00220157      -0.00307399      -0.00256372
Ti       2.93392651       6.01062270       8.77307415       0.00157529      -0.00036657      -0.00153764
Ti       0.00207730       6.01059160       8.77320088      -0.00158887      -0.00031311      -0.00149613
Ti       4.40399630       1.26318299       9.97071494       0.00003042       0.00029418       0.00034545
Ti       1.46807011       1.27648898       9.94856696       0.00000968      -0.00114624       0.00191394
Ti       4.40403320       4.09277320      10.43288250       0.00001208      -0.00252926      -0.00253492
Ti       1.46798206       4.08485529      10.44829542      -0.00005287      -0.00084263       0.00092703
Ti       2.88127325       6.20195128      11.61734272       0.00330759      -0.00399990       0.00372518
Ti       0.05477626       6.20206027      11.61771072      -0.00331963      -0.00408034       0.00368176
Ti       2.91690967       2.34536986      12.17436279       0.00095614       0.00614410       0.00183189
Ti       0.01912517       2.34526829      12.17428541      -0.00098224       0.00627335       0.00188264
Ti       1.46794503       4.48680099      13.54873853       0.00001790      -0.00119399      -0.00217275
Ti       4.40396782       4.40704035      13.55841667       0.00005065      -0.00028376       0.00121419
Ti       4.40357270       0.38204231      13.61437910       0.00005651      -0.00975345      -0.00240535
V        1.46850930       0.49465155      13.59932841       0.00000198      -0.00304701       0.00042407
Ti       0.02922942       2.32294015      14.97688170      -0.00057857       0.00602706       0.00091356
Ti       2.90689871       2.32311994      14.97701617       0.00055209       0.00599044       0.00086413
Ti       0.05765624       6.06551760      15.53530278      -0.00089616      -0.00003552      -0.00155363
Ti       2.87848671       6.06532621      15.53568181       0.00084363      -0.00005470      -0.00148513
Ti       4.40417180       3.94715702      16.77291490       0.00000183      -0.00140809      -0.00001650
Ti       1.46791419       3.94759065      16.74162858       0.00001126      -0.00104897       0.00165866
Ti       4.40407088       1.09983555      17.14510270       0.00005539       0.00165883      -0.00297477
Ti       1.46807915       1.11600857      17.16371608      -0.00005272      -0.00173577       0.00368116
Ti       0.00478141       5.82984199      18.38880102      -0.00225630       0.00108597      -0.00091941
Ti       2.93126500       5.82985305      18.38901133       0.00223954       0.00108219      -0.00090290
Ti       2.93559885       2.87431082      18.97325787       0.00265885      -0.00039414      -0.00028872
Ti       0.00046372       2.87438269      18.97326650      -0.00266557      -0.00049064      -0.00029984
Ti       4.40402906       0.70223467      20.14330692      -0.00004409      -0.00032899       0.00025022
Ti       1.46800705       0.70405078      20.14514121       0.00003695       0.00001909      -0.00267558
Ti       1.46803996       4.76206303      20.65613242       0.00004304      -0.00068417      -0.00140806
Ti       4.40402468       4.76319703      20.65119518      -0.00004095       0.00057686      -0.00435201
Ti       2.93819160       2.58446445      21.81917313       0.00015684       0.00242552      -0.00131730
Ti      -0.00209042       2.58443489      21.81918892      -0.00015177       0.00247983      -0.00133731
Ti       2.93840954       6.55688125      22.41964546       0.00011247       0.00068740      -0.00088979
Ti      -0.00238939       6.55684846      22.41961727      -0.00008064       0.00063543      -0.00094646
Ti       4.40396307       4.38323522      23.60634181       0.00004398      -0.00014129       0.00130221
Ti       1.46800994       4.38221549      23.61001454      -0.00005668       0.00128008       0.00005689
Ti       4.40403091       1.56559093      24.09154074       0.00003619       0.00092684       0.00307447
Ti       1.46807184       1.56390572      24.08692118      -0.00003326      -0.00074406       0.00395681
Ti       2.93570413       6.32193495      25.24737577       0.00027903       0.00312361       0.00058021
Ti       0.00035795       6.32197199      25.24726936      -0.00030550       0.00306430       0.00064897
Ti       0.00024866       3.28130938      25.86059641      -0.00061705      -0.00379806       0.00036665
Ti       2.93568472       3.28129217      25.86052964       0.00061276      -0.00379295       0.00032830
Ti       1.46789401       1.14875806      27.18015533      -0.00003087      -0.00049844       0.00024150
Ti       4.40395272       1.15006906      27.18132831       0.00001490       0.00040268       0.00091970
