52
Lattice="4.6568 0.0 0.0 0.0 7.770572 0.0 0.0 0.0 25.044546" Properties=species:S:1:pos:R:3:forces:R:3 job_name=SegregationProfile-CSL7-Al-Al-24-d-0.00 top_level=SegregationProfile solute=Al energy=-397.24107632 stress_kbar_3x3="_JSON [[-11.65217707, -0.00188496, -3.69201129], [-0.00188498, -26.78864204, 0.0041195], [-3.69201127, 0.00411949, -17.08841184]]" pbc="T T T"
Ti       1.81951841       7.39592831       0.70852890       0.01040120      -0.00137613      -0.00975601
Ti       4.64992707       5.59716084       1.36209813      -0.00312812      -0.00471464      -0.00031245
Ti       2.47351851       2.27204546       1.61041047       0.00249065      -0.00173712       0.00165131
Ti       4.58307619       0.62359654       2.07920199      -0.00235785       0.00339767       0.00472876
Ti       2.39140293       5.00609337       2.82236252       0.00482283      -0.00052248      -0.00167992
Ti       0.05652723       3.33464961       3.01307915       0.00250289       0.00038934      -0.00027255
Ti       2.34845684       0.00959215       3.64843470       0.00320913       0.00139732       0.00212930
Ti       0.07493368       6.10308532       4.08444955       0.00418608      -0.00053488       0.00181370
Ti       2.38906868       2.75972830       4.59722419       0.00281634      -0.00000302       0.00174360
Ti       0.05307745       1.11578753       4.99077824       0.00308116      -0.00010754       0.00257847
Ti       2.40397161       5.56255488       5.60825588       0.00415180      -0.00025423      -0.00035766
Ti       0.06210896       3.86698321       5.94249759       0.00326909       0.00005641       0.00079589
Ti       2.39345745       0.56452677       6.57749762       0.00375748      -0.00006498       0.00190695
Ti       0.08382701       6.62543079       6.89637095       0.00276297       0.00099777       0.00004950
Ti       2.38951292       3.32665619       7.52924445       0.00346673       0.00037453      -0.00173930
Ti       0.09845111       1.67312777       7.92655576       0.00654906      -0.00093459       0.00124208
Ti       2.43951223       6.10392554       8.43522931       0.00436322       0.00114127      -0.00099775
Ti       0.02454376       4.40618287       8.87855671       0.00050340       0.00171919      -0.00112656
Ti       2.48625988       1.11999495       9.52534764       0.00695319       0.00049905      -0.00272294
Ti       0.14919650       7.19097362       9.67492006       0.00693619      -0.00283355      -0.00341179
Ti       2.25095883       3.85837609      10.41539875       0.00739955       0.01181916       0.00417716
Ti       0.27594377       2.10036365      10.92279620       0.00028243      -0.00444147       0.00184396
Ti       2.39116566       6.65432562      11.15025979       0.01242066      -0.00990375       0.01213257
Ti       4.14737184       4.81492304      11.82250102      -0.01262798      -0.00019166      -0.00506849
Al       2.70540269       1.74126426      12.52187091       0.00142489       0.00624654       0.00052570
Ti       0.37691251       7.64272515      12.52199903      -0.00007000       0.00104800      -0.00029060
Ti       1.26282354       4.81526434      13.22100460       0.01160518       0.00003745       0.00369269
Ti       3.01837672       6.65455372      13.89328359      -0.01165042      -0.00934347      -0.01238257
Ti       0.47700255       2.10072545      14.12049135      -0.00112049      -0.00449765      -0.00175489
Ti       3.15851442       3.85863251      14.62833087      -0.00697937       0.01127630      -0.00389753
Ti       0.60292237       7.19145730      15.36880656      -0.00629698      -0.00351185       0.00336324
Ti       2.92279483       1.12050548      15.51804466      -0.00711775       0.00054114       0.00251575
Ti       0.72734147       4.40654805      16.16483354      -0.00082611       0.00088992       0.00103957
Ti       2.96878642       6.10442124      16.60847818      -0.00449122       0.00073575       0.00093287
Ti       0.65352479       1.67362711      17.11671186      -0.00628049      -0.00080109      -0.00105671
Ti       3.01928734       3.32720024      17.51433512      -0.00374114      -0.00026432       0.00145222
Ti       0.66762872       6.62584969      18.14732463      -0.00318917       0.00091005       0.00049129
Ti       3.01500201       0.56510976      18.46595486      -0.00339361      -0.00007508      -0.00142387
Ti       0.68991499       3.86735430      19.10115629      -0.00308527       0.00015540      -0.00075869
Ti       3.00461745       5.56300252      19.43540077      -0.00411627      -0.00032149       0.00017652
Ti       0.69892949       1.11609611      20.05264863      -0.00285460      -0.00041015      -0.00208849
Ti       3.01979950       2.76005729      20.44632739      -0.00227016      -0.00009401      -0.00163760
Ti       0.67689513       6.10324167      20.95922333      -0.00420843      -0.00001225      -0.00185458
Ti       3.06011801       0.00983557      21.39492111      -0.00289703       0.00129095      -0.00192467
Ti       0.69541292       3.33454857      22.03059257      -0.00258869       0.00036897       0.00054201
Ti       3.01714420       5.00625987      22.22136166      -0.00482814      -0.00068454       0.00159860
Ti       0.82573305       0.62351556      22.96442240       0.00230678       0.00259964      -0.00515951
Ti       2.93507581       2.27191683      23.43319285      -0.00319469      -0.00201745      -0.00178771
Ti       0.75879263       5.59726677      23.68157147       0.00245957      -0.00505823       0.00019711
Ti       3.58947843       7.39590450      24.33519387      -0.01104653      -0.00105106       0.00965883
Ti       0.37593883       2.79745540      25.04403290      -0.00001254      -0.00235188       0.00018603
Ti       2.70413162       4.57029094      25.04410772       0.00025055       0.01022270       0.00029717
