64
Lattice="5.871999 0.0 0.0 0.0 6.890708 0.0 0.0 0.0 27.401158" Properties=species:S:1:pos:R:3:forces:R:3 job_name=SegregationProfile-T1m-V-V-40-d-3.20 top_level=SegregationProfile solute=V energy=-496.08135936 stress_kbar_3x3="_JSON [[-11.38928036, -0.00131912, -0.00089522], [-0.00131908, -13.90439122, -0.22673527], [-0.0008952, -0.22673522, -21.37675512]]" pbc="T T T"
Ti       2.93597655       6.88667332       0.19769704       0.00034158      -0.00359652       0.00296127
Ti       2.93599622       2.81100245      27.20141309       0.00011997      -0.00469374       0.00273587
Ti       0.00007660      -0.00407921       0.19984250      -0.00043938      -0.00027837       0.00291285
Ti       0.00003060       2.81206718      27.19938035      -0.00004159      -0.00518353       0.00728734
Ti       4.40357112       4.79562232       1.38984153       0.00074302      -0.00263648      -0.00242051
Ti       1.46849792       4.79575250       1.38955701      -0.00084982      -0.00355003       0.00029367
Ti       4.40344589       1.59584418       2.00835527       0.00064212       0.00134032       0.00805160
Ti       1.46859567       1.59576659       2.00824414      -0.00067335       0.00168673       0.00895250
Ti       2.93598597       3.56388463       3.41482708       0.00002295      -0.01353427      -0.00507900
Ti       0.00004420       3.56324879       3.41433210       0.00002188      -0.01159562      -0.00318459
Ti       2.93601234       6.39644380       3.43607896      -0.00006798       0.00516358      -0.00147943
Ti       0.00000499       6.39764753       3.43635979       0.00008815       0.00133405      -0.00282990
Ti       1.46879529       1.60076891       4.84412670      -0.00115719       0.00103971      -0.01193433
Ti       4.40320018       1.60079900       4.84404224       0.00122615       0.00069814      -0.01104621
Ti       1.46777457       4.75351127       5.46297750       0.00171356      -0.00481737      -0.00047213
Ti       4.40425405       4.75347477       5.46288804      -0.00167241      -0.00468776      -0.00018845
Ti       2.93599048       6.85167365       6.63615599       0.00026503      -0.00114223       0.00318032
Ti       0.00001307       6.85284733       6.63458091      -0.00013701      -0.00517736       0.00235870
Ti       2.93601529       2.77216118       7.06593301       0.00004157       0.00149268      -0.00353593
Ti       0.00001884       2.77318783       7.06627546      -0.00004606       0.00085391       0.00043566
Ti       4.40500038       4.93061840       8.28062901      -0.00074599       0.00585885      -0.00148476
Ti       1.46705161       4.93060842       8.28066581       0.00072313       0.00586141      -0.00131909
Ti       4.40491854       0.97115130       8.88577131      -0.00497584       0.00356847      -0.00030589
Ti       1.46712774       0.97115995       8.88578279       0.00495841       0.00370788      -0.00005357
Ti      -0.00001043       3.13285413      10.04549922       0.00033833       0.00376850      -0.00329749
Ti       2.93605521       3.13084299      10.04291941      -0.00028209       0.00591068      -0.00288072
Ti       0.00003029       5.94618782      10.55688059       0.00002067      -0.00147013       0.00356941
Ti       2.93605412       5.94936607      10.55490096      -0.00008946       0.00723474      -0.00201737
Ti       1.46668784       1.22051911      11.72465905      -0.00194913       0.00378172      -0.00015966
Ti       4.40536864       1.22053491      11.72460859       0.00196475       0.00375029       0.00026985
Ti       1.46911125       4.14485981      12.31742133       0.00379801       0.00400674      -0.00157129
Ti       4.40292183       4.14483729      12.31740507      -0.00377047       0.00439781      -0.00074441
Ti       2.93598681       2.24307541      13.97648262       0.00065102       0.00568766       0.00313032
Ti       0.00006531       2.24222113      13.95256187      -0.00045702       0.00291001       0.00098769
Ti       2.93596698       6.31495536      13.51539762       0.00043580       0.00558041      -0.00729585
Ti       0.00003331       6.29731803      13.54248798      -0.00028475       0.00139541       0.00159888
Ti       4.34676127       4.35886674      15.16398279       0.00278473       0.00444158       0.00046379
Ti       1.52525314       4.35874289      15.16370584      -0.00330283       0.00518737       0.00176130
Ti       4.37532184       0.56620918      15.72304817       0.00204209       0.00091479      -0.00037777
Ti       1.49673057       0.56640193      15.72276776      -0.00237098      -0.00060246       0.00285509
V        2.93595336       5.61785458      17.11898874       0.00023305       0.00089054      -0.00155935
Ti      -0.00005015       5.50248632      17.11726157       0.00100891       0.00694322      -0.00086017
Ti       2.93598990       2.72233792      17.13256591      -0.00003717      -0.00843741       0.00254034
Ti       5.87191194       2.63577712      17.13285588       0.00047532      -0.00404503      -0.00792949
Ti       4.37764984       0.56966241      18.52793422       0.00069981       0.00321500       0.00255935
Ti       1.49435146       0.56984637      18.52827995      -0.00115892       0.00181787      -0.00100640
Ti       4.34772973       4.39174919      19.08814097      -0.00108408      -0.00083541       0.00118487
Ti       1.52437274       4.39153879      19.08857147       0.00016781       0.00106503      -0.00243678
Ti       0.00012558       2.27608262      20.28522616      -0.00090122      -0.00769428       0.00720431
Ti       2.93588205       2.27278801      20.26246783       0.00124321       0.00524906       0.00205931
Ti       0.00009155       6.33529282      20.71872360      -0.00066328      -0.00397678      -0.00262131
Ti       2.93594116       6.35382477      20.74581603       0.00058800      -0.01265094       0.00257217
Ti       1.46985194       4.18361004      21.93230068       0.00147880       0.00002191       0.00159771
Ti       4.40215803       4.18354616      21.93257859      -0.00143444       0.00092437      -0.00159669
Ti       1.46610995       1.27013275      22.52636409      -0.00153281      -0.00617263      -0.00091699
Ti       4.40595723       1.27007544      22.52663920       0.00145303      -0.00525966      -0.00352647
Ti       2.93610980       5.99800591      23.69860668      -0.00081453       0.00189558      -0.00246622
Ti      -0.00008655       5.99389753      23.69451096       0.00082038       0.00421160       0.00135119
Ti       2.93616128       3.18110437      24.20974408      -0.00105845       0.00121975      -0.00051743
Ti      -0.00009091       3.18346464      24.20644991       0.00099289      -0.00397166       0.00578586
Ti       4.40495071       1.02354294      25.36352606      -0.00173574      -0.00415739       0.00735775
Ti       1.46707692       1.02341117      25.36376557       0.00169654      -0.00263063       0.00478265
Ti       4.40484688       4.96829359      25.97250926       0.00103587       0.00207992      -0.00044788
Ti       1.46723101       4.96834628      25.97274207      -0.00110253       0.00169042      -0.00323809
