64
Lattice="5.088765 0.0 0.0 0.0 9.739025 0.0 0.0 0.0 22.303587" Properties=species:S:1:pos:R:3:forces:R:3 job_name=SegregationProfile-T2-Al-Al-42-d-3.50 top_level=SegregationProfile solute=Al energy=-492.1392555 stress_kbar_3x3="_JSON [[-0.99115592, -4.39109386, -0.52747597], [-4.39109387, -16.10027779, -1.52121153], [-0.52747598, -1.52121151, -16.63803123]]" pbc="T T T"
Ti       2.57540954       9.31362334       0.11096297      -0.00872412       0.00788671       0.01140349
Ti       0.04487172       4.44686801       0.10400800      -0.00463984       0.00964170       0.00532698
Ti       1.31153401       2.01319267       0.57637032      -0.00052463      -0.00804565      -0.01474461
Ti       3.85088903       6.87971566       0.58687395       0.00692740       0.00057495      -0.00235672
Ti       2.60727527       4.28862403       1.29609460       0.00264540       0.00392817      -0.00959098
Ti       0.05389677       9.16296034       1.30888138       0.00390242       0.00099350      -0.01470445
Ti       1.01166034       6.39091408       2.14132961      -0.00746070       0.01009934       0.00221904
Ti       3.54511632       1.52027097       2.14850606       0.00272748       0.00576318      -0.00365918
Ti       0.27003660       3.62050949       2.77038714      -0.00252851       0.00228120       0.01293973
Ti       2.80847829       8.48956119       2.78299529      -0.00575387      -0.00029329       0.00021767
Ti       1.10323635       0.94163317       3.49388703       0.00270954      -0.00663115       0.00413520
Ti       3.64888866       5.80758028       3.48688661       0.00965518      -0.00669328       0.00179242
Ti       2.71924622       3.22688058       4.21784088      -0.00202671      -0.00163708       0.00458319
Ti       0.17080114       8.09383860       4.21946917       0.00201734      -0.00805528      -0.00299703
Ti       3.59827388       0.56364388       4.86500636       0.00136232       0.00545590       0.01100669
Ti       1.05635440       5.43587289       4.85837104      -0.00127651       0.00207774       0.00577255
Ti       2.74106002       7.64434420       5.55310529       0.00086298       0.00646552      -0.00014496
Ti       0.19761402       2.77696939       5.54390343       0.00146475      -0.00009617      -0.00363134
Ti       3.60283820       4.99726719       6.31450020      -0.00844727      -0.00289318      -0.00114007
Ti       1.05206189       0.11771254       6.31540311      -0.00704889       0.00259810      -0.00065873
Ti       0.21514712       7.18958214       6.98546215      -0.00334084      -0.00331795       0.00334710
Ti       2.75914392       2.32233430       6.98014348      -0.00497278      -0.00207688       0.00072468
Ti       1.09366212       4.53443499       7.65367863       0.00083196       0.00754667       0.00049154
Ti       3.62634231       9.39454833       7.66747504      -0.00178709       0.00115038      -0.00497361
Ti       0.16828922       1.93727068       8.36324482      -0.00071484       0.00045743       0.00219519
Ti       2.70280137       6.80573584       8.38847876       0.00093126       0.00497976      -0.00375110
Ti       0.99466660       8.99257520       9.08738738       0.00523291      -0.00301363      -0.00050184
Ti       3.57449914       4.12949615       9.07651349      -0.00280835      -0.00156957       0.00681156
Ti       2.75877728       1.38803412       9.70089675       0.00074349       0.00098332      -0.00370686
Ti       0.20800630       6.28263946       9.71779950      -0.00168520      -0.00200385      -0.00615936
Ti       3.67096048       8.41986130      10.59402677      -0.00119061       0.00149158      -0.00212407
Ti       1.20662385       3.51849851      10.52197204       0.00383259       0.00804979      -0.00801608
Ti       5.06543489       0.94952405      11.17832255      -0.00206073      -0.00019370      -0.00251600
Ti       2.49157945       5.79374992      11.25410176       0.00104556      -0.00198942      -0.00192806
Ti       3.78657587       3.33210414      11.76396607      -0.00439045      -0.00316128       0.00789039
Ti       1.18778457       8.21823533      11.81072263       0.00015149      -0.00115381      -0.00098040
Ti       2.51014966       1.02048525      12.48890041       0.00516700      -0.00244001       0.01050847
Ti       5.02892588       5.88256972      12.45471288      -0.00053188       0.00282816      -0.01236333
Ti       1.53096479       3.75847420      13.29152777       0.00828000      -0.00817251       0.00128209
Ti       4.05489714       8.61725539      13.34147263       0.00046165      -0.00670101      -0.00039170
Ti       4.94820876       1.67653087      13.91951504       0.00105980      -0.00270803       0.00010200
Ti       2.25155235       6.50599485      13.94351967       0.00988817      -0.00476310       0.00665766
Al       1.50249608       9.16202310      14.62140577       0.00192749      -0.00385613       0.00811801
Ti       3.99379913       4.36369687      14.62734967      -0.01126494       0.00369136      -0.00074239
Ti       4.97282876       6.96290603      15.42139085      -0.01223146       0.00561691       0.00354945
Ti       2.42529301       2.02318889      15.29072890       0.00160750       0.00846954      -0.00674227
Ti       1.50315499       4.70168859      15.99643509       0.01215632      -0.00275868      -0.00586040
Ti       4.09203055       9.60167379      15.99933871       0.01057913      -0.01054669      -0.00896817
Ti       2.38007208       7.39015013      16.67103222      -0.00202013      -0.00141585      -0.01050483
Ti       4.86590301       2.55440655      16.68820715      -0.00610287       0.00495911       0.00266486
Ti       4.01842457       5.17829307      17.45683941       0.00327949       0.00028561       0.00011783
Ti       1.45722546       0.28884978      17.41353429      -0.00323243       0.00086924      -0.01036320
Ti       4.86120722       7.83112085      18.17180071       0.00607693      -0.00559204       0.00608629
Ti       2.33149850       2.96530301      18.12496663      -0.00161603      -0.00073452       0.00489701
Ti       1.44885068       5.62669954      18.75305360      -0.00472086       0.00474501       0.00065043
Ti       3.99165427       0.74985409      18.75114329      -0.00702547       0.00953242       0.00070213
Ti       2.36578455       8.22229506      19.51150356      -0.00221412      -0.00810341      -0.00568285
Ti       4.92075964       3.33531638      19.51337123      -0.00156710      -0.00233153      -0.01211096
Ti       1.55184119       1.16896358      20.20279667      -0.00082182      -0.00876991       0.01487799
Ti       4.08538867       6.03187716      20.22262051      -0.00645963      -0.01376108       0.00655765
Ti       4.80817141       8.83860878      20.86485158       0.00612497      -0.00220708       0.00363616
Ti       2.27424433       3.94935847      20.84064551       0.00957285       0.00294949       0.00343585
Ti       3.86801139       1.85390126      21.69872488       0.00410019       0.00553299       0.00293461
Ti       1.32116206       6.72856752      21.68369700       0.00386510       0.00578195       0.00437962
