64
Lattice="5.088765 0.0 0.0 0.0 9.739025 0.0 0.0 0.0 22.303587" Properties=species:S:1:pos:R:3:forces:R:3 job_name=SegregationProfile-T2-V-V-48-d-5.58 top_level=SegregationProfile solute=V energy=-495.84501847 stress_kbar_3x3="_JSON [[-3.33009015, 0.00145095, 0.0057892], [0.00145095, -19.93004324, 0.26404506], [0.00578922, 0.26404508, -20.72004491]]" pbc="T T T"
Ti       2.56080506       9.24648017      22.27906154      -0.00116517       0.00187863       0.00828327
Ti       0.00761098       4.38049906      -0.00039036       0.00212581       0.00787213       0.00433563
Ti       1.27829151       1.87157171       0.60820472       0.01022952       0.00802975      -0.00091748
Ti       3.82157209       6.75340298       0.60873326       0.00186028       0.00114034       0.00352343
Ti       2.70364838       4.07872017       1.36936633      -0.00618964       0.00685465       0.00358925
Ti       0.16866327       8.95555638       1.36792417      -0.01319745       0.00037670      -0.00181081
Ti       1.04839725       6.22650461       2.11049363      -0.00259743       0.00596376       0.00117470
Ti       3.58969584       1.35904335       2.10966501      -0.00195004      -0.00086904       0.00963574
Ti       0.23280058       3.50534457       2.75502744      -0.00164548       0.00650521       0.00336667
Ti       2.77644708       8.38389207       2.75371064       0.00057892      -0.00087286       0.00352542
Ti       1.10582470       0.87357963       3.49616751       0.00607968       0.00262463       0.00591496
Ti       3.65077693       5.74358291       3.48786959       0.00539275       0.00317956       0.00944067
Ti       2.76016590       3.11030384       4.18432401       0.00014094       0.00286777       0.00766586
Ti       0.21652400       7.97798473       4.18160218       0.00058906       0.00250649       0.00553024
Ti       3.61288913       0.43821917       4.85446168       0.00399730       0.00013900       0.00341129
Ti       1.06685625       5.30859169       4.85323814       0.00352025      -0.00044920      -0.00096082
Ti       2.75818749       7.52287367       5.57589003       0.00224531       0.00003287      -0.00012382
Ti       0.21213832       2.65333738       5.57585601      -0.00084213       0.00027781      -0.00028458
Ti       3.61329667       4.86951374       6.29734603       0.00390215      -0.00037201      -0.00350850
Ti       1.06735302       9.73799785       6.29850810       0.00349761       0.00023534       0.00081566
Ti       0.21638823       7.06873194       6.97010368       0.00076616      -0.00283880      -0.00565551
Ti       2.76018200       2.19754225       6.96718308      -0.00047094      -0.00326019      -0.00756596
Ti       1.10585018       4.43431854       7.65509143       0.00676969      -0.00239682      -0.00526115
Ti       3.65081425       9.30352023       7.66315888       0.00543332      -0.00310368      -0.00841932
Ti       0.23318489       1.80235483       8.39669047      -0.00259142      -0.00589846      -0.00417431
Ti       2.77658161       6.66317153       8.39844666       0.00027788       0.00058541      -0.00402150
Ti       1.04784828       8.81990436       9.04112691      -0.00206184      -0.00539956      -0.00076035
Ti       3.58937656       3.94839807       9.04197802      -0.00169437       0.00145025      -0.00978298
Ti       2.70397921       1.22838273       9.78209835      -0.00623790      -0.00670258      -0.00295733
Ti       0.16864440       6.09065847       9.78377907      -0.01333640      -0.00138934       0.00230502
Ti       3.82179909       8.29278431      10.54335183       0.00175024      -0.00158869      -0.00403678
Ti       1.27830658       3.43545676      10.54366098       0.01013238      -0.00811389       0.00126073
Ti       0.00759109       0.92655839      11.15207867       0.00189410      -0.00892398      -0.00405561
Ti       2.56057807       5.79971592      11.17661333      -0.00109574      -0.00158282      -0.00934298
Ti       3.82492340       3.43423462      11.78891538      -0.00032341       0.00596754       0.00111663
Ti       1.28434491       8.31391733      11.79818924       0.00426831       0.00101153      -0.00217953
Ti       2.36983616       1.24161048      12.57440736      -0.01014351       0.00160155       0.00568332
Ti       4.92602392       6.13587916      12.58138831      -0.00870357       0.01259691       0.00011878
Ti       1.48660613       3.98052112      13.27905583       0.00175085       0.00558943       0.00014461
Ti       4.04484663       8.82471254      13.28086487       0.00616343       0.01084407      -0.00722542
Ti       4.86871374       1.79928773      13.92557925      -0.00016758       0.00236656       0.00235519
Ti       2.33105142       6.70380854      13.97140356       0.00998337      -0.00031065       0.00199140
Ti       1.42832327       9.29503974      14.71252604       0.00127407       0.00219346       0.00268781
Ti       3.98673484       4.43913495      14.64003579       0.00360991      -0.00727192       0.00512641
Ti       4.87050467       7.07929217      15.39041773      -0.00522446       0.00270624       0.00052306
Ti       2.31778825       2.22198253      15.34149194      -0.00099815       0.00650222       0.00087020
Ti       1.46789884       4.90702861      16.03685428       0.00089085       0.00405816       0.01213013
Ti       3.94819324       9.73396748      16.01478417      -0.01153916       0.00056809      -0.00288514
V        2.39163171       7.52369202      16.72745807      -0.00298843      -0.00052013      -0.00043569
Ti       4.88027647       2.65346162      16.72738266       0.00380410       0.00039967      -0.00004284
Ti       3.94811439       5.31288210      17.43988920      -0.01115873       0.00005279       0.00306281
Ti       1.46839927       0.40132685      17.41836949       0.00098288      -0.00430746      -0.01263244
Ti       4.86980948       7.96765530      18.06446063      -0.00472771      -0.00219824       0.00023375
Ti       2.31742804       3.08663352      18.11314068      -0.00066230      -0.00709707      -0.00007798
Ti       1.42822551       5.75279454      18.74263070       0.00148827      -0.00262094      -0.00318085
Ti       3.98691992       0.86923281      18.81527513       0.00300584       0.00680830      -0.00515833
Ti       2.33106017       8.34396638      19.48427682       0.01086813      -0.00130096      -0.00311001
Ti       4.86899314       3.50905057      19.52936821      -0.00072818      -0.00217360      -0.00184141
Ti       1.48633492       1.32754381      20.17603820       0.00138948      -0.00594835      -0.00025032
Ti       4.04428817       6.22183365      20.17430593       0.00550175      -0.01017061       0.00699106
Ti       4.92601384       8.91031930      20.87353418      -0.00793141      -0.01215199       0.00067655
Ti       2.36978962       4.06568486      20.88023324      -0.00955436      -0.00083668      -0.00531506
Ti       3.82523753       1.87253825      21.66603016      -0.00111664      -0.00507775      -0.00115081
Ti       1.28419183       6.73215415      21.65691877       0.00487902      -0.00003857       0.00163538
