64
Lattice="5.872 0.0 0.0 0.0 6.890708 0.0 0.0 0.0 27.394398" Properties=species:S:1:pos:R:3:forces:R:3 job_name=SegregationProfile-T1g-V-V-37-d-1.90 top_level=SegregationProfile solute=V energy=-495.94367422 stress_kbar_3x3="_JSON [[-12.15162731, -0.00181496, 0.00151439], [-0.00181495, -11.3171912, 0.25830008], [0.0015144, 0.2583001, -22.49589464]]" pbc="T T T"
Ti       4.40461258       5.21390799      27.39013183       0.00041941      -0.00464696      -0.00742766
Ti       1.46739317       5.21385129      27.39012255      -0.00032834      -0.00420779      -0.00748298
Ti       5.87193263       3.18838584       1.28095467      -0.00001951       0.00113389      -0.00081794
Ti       2.93609513       3.18695568       1.28326006      -0.00007804       0.00218867      -0.00177898
Ti       0.00005321       6.63634409       1.90215233       0.00011316       0.00622788       0.00889488
Ti       2.93596291       6.63624917       1.90317958      -0.00016113       0.00622735       0.00857039
Ti       4.40530214       1.76963323       3.19285084       0.00072452      -0.00612107       0.01152471
Ti       1.46663376       1.76970757       3.19288923      -0.00069985      -0.00642784       0.01134720
Ti       1.46746052       4.59658002       3.40514196      -0.00049815      -0.00235157       0.00480577
Ti       4.40453611       4.59654831       3.40517790       0.00050492      -0.00243220       0.00461080
Ti       5.87198103       6.72631431       4.72038300       0.00003141       0.00929900      -0.00414297
Ti       2.93593576       6.72410226       4.72349480       0.00001759       0.01025103      -0.00474424
Ti       2.93596845       2.87697105       5.33364606      -0.00009823      -0.00529938      -0.00817434
Ti       5.87190002       2.87690562       5.33542001       0.00012677      -0.00505018      -0.00833632
Ti       4.40677028       5.00759926       6.49286502       0.00143584       0.00247856       0.00074172
Ti       1.46507793       5.00765319       6.49284496      -0.00136068       0.00219311       0.00077252
Ti       4.40646450       0.93264437       6.97402583       0.00099701      -0.00075666       0.00111747
Ti       1.46538368       0.93271869       6.97405271      -0.00084775      -0.00115602       0.00087927
Ti       2.93596068       3.09250447       8.15798625       0.00003186       0.00398341       0.01852313
Ti       5.87195661       3.09848965       8.15858590       0.00008998       0.00308939       0.01537514
Ti       2.93596159       6.02200332       8.75255431      -0.00011837      -0.00253216       0.01892152
Ti       5.87193708       6.02189922       8.77447122       0.00007211      -0.00481712       0.01272318
Ti       4.40703842       1.29207882       9.93828229      -0.00135153       0.00536091       0.01137429
Ti       1.46497950       1.29205116       9.93825362       0.00133569       0.00532243       0.01160816
Ti       4.40993453       4.11537741      10.43684937      -0.00077108      -0.00066896       0.00957510
Ti       1.46199779       4.11536325      10.43692279       0.00077610      -0.00050883       0.00929007
Ti       2.93595973       6.24821164      11.58187588       0.00010568      -0.00404671       0.00912676
Ti       0.00011941       6.25526647      11.61507606      -0.00015373      -0.00721038      -0.00388105
Ti       2.93608218       2.36885927      12.18302869       0.00024513      -0.00076825      -0.00676495
Ti       5.87199016       2.38290309      12.20713565      -0.00023794       0.00035148      -0.01441444
Ti       1.48478636       4.50955461      13.52390206      -0.00028015       0.01124413       0.00140289
Ti       4.38747723       4.50952915      13.52407345       0.00016800       0.01093254       0.00151421
Ti       4.37293639       0.43388274      13.78883263      -0.00393278      -0.01021291       0.00507079
Ti       1.49906682       0.43406597      13.78872907       0.00392530      -0.00968743       0.00476876
Ti       5.87198039       2.48535709      14.99594106      -0.00056063       0.00101039       0.01236407
Ti       2.93617335       2.48057231      14.96094927       0.00053553      -0.00488912       0.01315542
Ti       0.00090524       5.92667376      15.62678304      -0.00014095      -0.01152165       0.00274523
V        2.93519227       5.92417461      15.57961668      -0.00021034       0.00135672      -0.00654789
Ti       4.35410195       3.93468517      16.82251029      -0.00426131       0.00746762      -0.00216460
Ti       1.51809399       3.93438133      16.82252888       0.00437294       0.00712657      -0.00174414
Ti       4.39139385       1.04732092      17.05906054      -0.00216152      -0.00468811      -0.00463325
Ti       1.48081447       1.04748470      17.05903667       0.00195035      -0.00486879      -0.00443383
Ti       0.00012703       5.83847135      18.42164617      -0.00002045      -0.00217355      -0.01288777
Ti       2.93600857       5.81711064      18.36602466      -0.00006337      -0.00294733      -0.00005003
Ti       2.93617257       2.81375398      18.99089996       0.00014396      -0.00188399       0.00134743
Ti       5.87195534       2.79732555      18.96127759      -0.00009008       0.00109867       0.00085857
Ti       4.40123396       0.67929458      20.14372502      -0.00653452      -0.00201657      -0.00570464
Ti       1.47079705       0.67931298      20.14376206       0.00661330      -0.00196147      -0.00579303
Ti       1.47549074       4.73886206      20.64199632       0.00515933       0.00430662      -0.00892900
Ti       4.39657166       4.73891416      20.64201046      -0.00508673       0.00415689      -0.00901795
Ti       2.93600398       2.57567167      21.83079056      -0.00011116       0.00203074      -0.01903829
Ti       5.87197328       2.57913688      21.80810632       0.00012221      -0.00178396      -0.00774355
Ti       2.93600014       6.54193504      22.42510957      -0.00001484       0.00359591      -0.01918329
Ti       0.00001337       6.54233613      22.41162732      -0.00004280       0.00369427      -0.01414486
Ti       4.40581721       4.38092159      23.60725638      -0.00005831      -0.00166476      -0.00628007
Ti       1.46615092       4.38089002      23.60729187       0.00016337      -0.00158445      -0.00636137
Ti       4.40625235       1.56033228      24.08767004       0.00152673       0.00418470      -0.00476794
Ti       1.46570642       1.56032185      24.08766887      -0.00145082       0.00423427      -0.00473532
Ti       2.93598582       6.32158866      25.24996389      -0.00009708      -0.00483517       0.00586976
Ti       0.00000697       6.32121798      25.24145921       0.00006142      -0.00376981       0.00410504
Ti       5.87195987       3.28242612      25.85626976       0.00018803       0.00656355       0.00016073
Ti       2.93603030       3.27898688      25.85760441      -0.00007658       0.00656239      -0.00006739
Ti       1.46743470       1.15062388      27.17266289      -0.00035001      -0.00404671      -0.00545502
Ti       4.40464985       1.15065308      27.17265896       0.00031113      -0.00413520      -0.00549586
