64
Lattice="5.872 0.0 0.0 0.0 6.890708 0.0 0.0 0.0 27.394398" Properties=species:S:1:pos:R:3:forces:R:3 job_name=SegregationProfile-T1g-V-V-30-d-0.22 top_level=SegregationProfile solute=V energy=-495.72175475 stress_kbar_3x3="_JSON [[-12.43782303, -0.00540885, 0.00392314], [-0.00540887, -14.31183779, -2.61955709], [0.00392313, -2.6195571, -20.15569962]]" pbc="T T T"
Ti       4.40399215       5.21079467      27.38945711       0.00005388      -0.00760077      -0.00197303
Ti       1.46790072       5.20809835      27.39034936       0.00013583      -0.00702631      -0.00266288
Ti       5.86862713       3.18284097       1.28940093       0.00068039      -0.00522572      -0.00406354
Ti       2.93925701       3.18284637       1.28934747      -0.00051119      -0.00511803      -0.00387445
Ti       0.00459118       6.62820939       1.91078057      -0.00137081      -0.00419434       0.00069117
Ti       2.93136350       6.62818105       1.91070907       0.00138965      -0.00420663       0.00083163
Ti       4.40393444       1.75995205       3.20488250      -0.00005683       0.00089016      -0.00044860
Ti       1.46799513       1.76123121       3.20477411      -0.00006751      -0.00056995       0.00040393
Ti       1.46799581       4.58649229       3.41382055      -0.00003341       0.00423635      -0.00166822
Ti       4.40398883       4.58618089       3.41680298      -0.00004722       0.00403457       0.00154938
Ti       0.00068351       6.71352852       4.73329694      -0.00055974       0.00711306       0.00148199
Ti       2.93532519       6.71354785       4.73326155       0.00035681       0.00703305       0.00139828
Ti       2.93895765       2.86841540       5.34568167       0.00007578       0.00883160      -0.00405020
Ti       5.86890983       2.86842910       5.34570533       0.00001715       0.00885362      -0.00410875
Ti       4.40397060       4.99846046       6.51270426      -0.00003490       0.00924648      -0.00065828
Ti       1.46798932       4.99721859       6.50462157      -0.00011116       0.00636826      -0.00213675
Ti       4.40391795       0.92399174       6.98208316       0.00006978       0.01023020      -0.00533422
Ti       1.46794883       0.92590648       6.98059556      -0.00002599       0.00675249      -0.00902099
Ti       2.93039483       3.08760967       8.16878997       0.00324069       0.01119085      -0.00801692
Ti       0.00552672       3.08757342       8.16882426      -0.00334190       0.01139853      -0.00816827
Ti       2.93352821       6.03547530       8.77206129       0.00404048       0.00297386      -0.00696378
Ti       0.00238107       6.03551127       8.77208940      -0.00395770       0.00268964      -0.00700022
Ti       4.40404539       1.29427258       9.96622077      -0.00004747       0.01578887      -0.00519409
Ti       1.46806663       1.29854098       9.94943048      -0.00017914       0.01191886       0.00096584
Ti       4.40388293       4.13953495      10.39693105      -0.00004171       0.00609996      -0.00128439
Ti       1.46785182       4.13841288      10.43417202       0.00024565       0.00749421      -0.00826249
Ti       2.94314178       6.26082406      11.61771809      -0.00690208       0.00517758       0.00116973
Ti       5.86487186       6.26085516      11.61777150       0.00681882       0.00502607       0.00111994
Ti       2.89316554       2.45387445      12.17496147       0.01167968      -0.00206343       0.00061929
Ti       0.04288696       2.45393416      12.17487773      -0.01172726      -0.00211997       0.00092636
V        1.46843009       4.55564036      13.43997263      -0.00007004       0.01620333      -0.00579098
Ti       4.40412434       4.59026372      13.43531171      -0.00008553       0.00339646       0.00584568
Ti       4.40389772       0.57093244      13.75554138       0.00005676      -0.01972185       0.00180989
Ti       1.46800047       0.46658608      13.76876276      -0.00004736       0.01007046       0.00180103
Ti       0.06824682       2.63034815      14.94581189      -0.01245214      -0.00567160       0.00632585
Ti       2.86807218       2.63047968      14.94593544       0.01222442      -0.00626576       0.00594178
Ti       5.86542028       5.83746086      15.54243047       0.01317529       0.01263289      -0.00213354
Ti       2.94239262       5.83725035      15.54242838      -0.01261558       0.01287879      -0.00236237
Ti       4.40417344       3.87755466      16.92439878       0.00010754      -0.00031971      -0.00025379
Ti       1.46792419       3.89374330      16.94905659      -0.00015141      -0.00522975      -0.00191063
Ti       4.40413309       1.04272351      17.01305928       0.00005899      -0.00083350       0.00018930
Ti       1.46810761       1.04890670      17.00208743      -0.00013503      -0.00327859       0.00498557
Ti       5.85946540       5.84622903      18.39098060       0.00073841      -0.00823150       0.00542186
Ti       2.94875869       5.84615177      18.39095689      -0.00069620      -0.00783702       0.00563887
Ti       2.92816680       2.74143525      19.00587990       0.00716604      -0.00563608       0.00259643
Ti       0.00790953       2.74130202      19.00597206      -0.00717665      -0.00527053       0.00251934
Ti       4.40399059       0.63322748      20.17065535       0.00006587      -0.00689921       0.00542501
Ti       1.46813391       0.63450531      20.16650779      -0.00012668      -0.00665896       0.00985405
Ti       1.46808761       4.71501970      20.61709164       0.00004020      -0.00549659       0.00242464
Ti       4.40403374       4.71300093      20.62381255       0.00012586      -0.00307023       0.00595751
Ti       2.93488524       2.56529470      21.81851043      -0.00053506      -0.00376486       0.00754692
Ti       0.00127127       2.56536264      21.81855848       0.00038872      -0.00390586       0.00747806
Ti       2.93703281       6.51539488      22.42352238      -0.00078311      -0.00530105       0.00234680
Ti       5.87100846       6.51536269      22.42346932       0.00084921      -0.00525405       0.00235022
Ti       4.40397930       4.36280808      23.61244061       0.00008632      -0.00533812      -0.00037536
Ti       1.46800145       4.36299642      23.60961826      -0.00004942      -0.00476725      -0.00217994
Ti       4.40403829       1.55113861      24.08378065      -0.00013185      -0.00547403       0.00112550
Ti       1.46804018       1.55210668      24.08431870      -0.00000312      -0.00648428       0.00150783
Ti       2.93391079       6.31499572      25.24567322       0.00051461      -0.00870330       0.00008789
Ti       0.00203095       6.31498595      25.24559222      -0.00039950      -0.00869588       0.00034038
Ti       5.87131319       3.27245196      25.86268367      -0.00037180      -0.00357685      -0.00042408
Ti       2.93663051       3.27247855      25.86265830       0.00047841      -0.00378096      -0.00042460
Ti       1.46794997       1.14314174      27.17625721       0.00005313      -0.00790842       0.00086527
Ti       4.40399186       1.14382522      27.17720156      -0.00008792      -0.00702924      -0.00079783
