64
Lattice="5.088765 0.0 0.0 0.0 9.739025 0.0 0.0 0.0 22.303587" Properties=species:S:1:pos:R:3:forces:R:3 job_name=SegregationProfile-T2-V-V-32-d-0.00 top_level=SegregationProfile solute=V energy=-496.12767454 stress_kbar_3x3="_JSON [[-4.56101047, -0.00406077, -0.69100801], [-0.00406073, -19.682417, 0.01071159], [-0.69100802, 0.01071157, -18.80597475]]" pbc="T T T"
Ti       2.54456744       9.26741604       0.00008732       0.00026001       0.00937424      -0.00001804
Ti       0.00022440       4.39460220       0.00008385       0.00004372       0.00352164       0.00008168
Ti       1.27259932       1.88948954       0.61447760       0.00605594       0.00034013       0.00304256
Ti       3.81647208       6.75904121       0.61146137       0.00880726       0.00159511       0.00571172
Ti       2.71315090       4.08290419       1.39475520      -0.00272054      -0.00269559       0.00385197
Ti       0.16876315       8.95104883       1.39387386      -0.00042165      -0.00113935      -0.00177338
Ti       1.03476856       6.22204142       2.12623047       0.00544235       0.00383556       0.00497659
Ti       3.58406155       1.35527689       2.12719129      -0.00094525       0.00277946      -0.00208977
Ti       0.23308856       3.49973226       2.77596449       0.00552363       0.00650108       0.00110401
Ti       2.77549849       8.36956506       2.76948015       0.00116040       0.00670824       0.00346170
Ti       1.11835497       0.87460578       3.50370445       0.00180303       0.00639819      -0.00455455
Ti       3.65666461       5.74269041       3.50625510      -0.00309454       0.00341022      -0.00180521
Ti       2.76945688       3.11204209       4.21068366      -0.00190603       0.00438988      -0.00725552
Ti       0.21697603       7.98467425       4.20167632       0.00606881       0.00203745      -0.00283267
Ti       3.61603168       0.44853632       4.85946469      -0.00900671       0.00320935      -0.00572988
Ti       1.06551229       5.30965524       4.86009456       0.00066300       0.00352654      -0.00652719
Ti       2.76417583       7.51964870       5.57931757      -0.00015261       0.00171085      -0.00608065
Ti       0.23178163       2.64861507       5.59829980      -0.00156125       0.00164854      -0.00270220
Ti       3.62340317       4.87855906       6.31947129      -0.00340997       0.00243750      -0.00050386
Ti       1.09718943       0.00825365       6.31197151       0.00313700       0.00051511      -0.00106429
Ti       0.22065975       7.07933252       6.97988191      -0.00220781      -0.00344174       0.00077087
Ti       2.77963609       2.20792664       7.00404159      -0.00128799      -0.00230881      -0.00267573
Ti       1.12154205       4.46039308       7.65078244       0.00237068      -0.00307658      -0.00585630
Ti       3.67803429       9.33054981       7.62378900      -0.00179699      -0.00168426       0.00041029
Ti       0.26911315       1.83600923       8.41542595      -0.00073365      -0.00009285       0.00279657
Ti       2.77943071       6.72935480       8.40433307       0.00053857       0.00188188      -0.00459445
Ti       1.00558837       8.86733773       9.04677225      -0.00200502       0.00001505       0.00069869
Ti       3.54905621       3.97767916       9.03385344      -0.00838593      -0.00167639      -0.00141373
Ti       2.87538316       1.18098887       9.82155280       0.00490208      -0.00633148       0.00148886
Ti       0.19129312       6.07035323       9.77463675       0.00015965      -0.00925160       0.00054643
Ti       3.82641134       8.26422073      10.58289331       0.00462048      -0.00256019       0.00468630
Ti       1.27869354       3.32902216      10.57670946      -0.00250851      -0.01212729       0.00332235
V        0.00008065       0.82362664      11.15160388      -0.00024819      -0.01591634      -0.00013570
Ti       2.54444531       5.73073410      11.15167607      -0.00010679      -0.00860902      -0.00008675
Ti       3.81025419       3.32903868      11.72663864       0.00267887      -0.01244016      -0.00281344
Ti       1.26247628       8.26432066      11.72049578      -0.00462222      -0.00272366      -0.00462439
Ti       2.21339005       1.18106472      12.48185168      -0.00457407      -0.00619754      -0.00159173
Ti       4.89747484       6.07053538      12.52881013      -0.00008817      -0.00956882      -0.00055550
Ti       1.53980959       3.97775414      13.26948425       0.00839006      -0.00154020       0.00094790
Ti       4.08327859       8.86743643      13.25655052       0.00164854       0.00029404      -0.00064318
Ti       4.81982993       1.83600467      13.88797765       0.00049764       0.00025796      -0.00283540
Ti       2.30945593       6.72940642      13.89908377      -0.00047751       0.00197773       0.00435383
Ti       1.41082236       9.33051559      14.67957623       0.00191548      -0.00184352      -0.00021051
Ti       3.96732572       4.46037872      14.65256990      -0.00209056      -0.00341063       0.00563176
Ti       4.86818457       7.07929652      15.32344950       0.00261641      -0.00339203      -0.00035300
Ti       2.30924282       2.20788027      15.29927015       0.00167571      -0.00272022       0.00263072
Ti       1.46547740       4.87841634      15.98387655       0.00294677       0.00303025       0.00089090
Ti       3.99167092       0.00816440      15.99139778      -0.00330918       0.00042993       0.00119697
Ti       2.32463626       7.51953357      16.72402144      -0.00012570       0.00183747       0.00597177
Ti       4.85705626       2.64849609      16.70499041       0.00154454       0.00174293       0.00283152
Ti       4.02336710       5.30952268      17.44324884      -0.00037551       0.00355156       0.00648602
Ti       1.47284959       0.44846373      17.44391995       0.00905486       0.00284674       0.00538674
Ti       4.87183720       7.98455103      18.10181975      -0.00600842       0.00165221       0.00217039
Ti       2.31938004       3.11190591      18.09269572       0.00191396       0.00446868       0.00755672
Ti       1.43220799       5.74267831      18.79713840       0.00302100       0.00299380       0.00158778
Ti       3.97053893       0.87455984      18.79967434      -0.00189603       0.00661626       0.00447645
Ti       2.31356530       8.36929564      19.53387196      -0.00098025       0.00687379      -0.00339829
Ti       4.85599875       3.49940481      19.52735523      -0.00559434       0.00671793      -0.00142903
Ti       1.50483058       1.35484282      20.17629374       0.00110087       0.00299183       0.00218190
Ti       4.05405511       6.22159530      20.17722583      -0.00550915       0.00357585      -0.00500249
Ti       4.91978063       8.95040305      20.90922670       0.00003281      -0.00147080       0.00227064
Ti       2.37541590       4.08228822      20.90833646       0.00248703      -0.00308341      -0.00407096
Ti       3.81658977       1.88921558      21.68887381      -0.00615925      -0.00007293      -0.00283736
Ti       1.27266096       6.75873830      21.69183828      -0.00877136       0.00168045      -0.00545744
