64
Lattice="5.872 0.0 0.0 0.0 6.890708 0.0 0.0 0.0 27.394398" Properties=species:S:1:pos:R:3:forces:R:3 job_name=SegregationProfile-T1g-Al-Al-40-d-3.41 top_level=SegregationProfile solute=Al energy=-491.93647479 stress_kbar_3x3="_JSON [[-9.90156338, -0.00022286, 0.0013002], [-0.00022284, -9.34626796, 1.68329136], [0.00130024, 1.6832914, -21.04615151]]" pbc="T T T"
Ti       4.40398230       5.21093866      27.38268328       0.00003978       0.00013309       0.00060743
Ti       1.46797633       5.20866803      27.38366610       0.00009010      -0.00047425      -0.00106070
Ti       5.86952864       3.18710858       1.27790060      -0.00028882      -0.00168883       0.00123383
Ti       2.93850485       3.18708464       1.27794510       0.00020196      -0.00170729       0.00113616
Ti       0.00290381       6.63320488       1.89854155      -0.00102293      -0.00224514       0.00018487
Ti       2.93305092       6.63323782       1.89853803       0.00104472      -0.00221139       0.00027779
Ti       4.40399715       1.76767577       3.19120725      -0.00008806       0.00164214       0.00255828
Ti       1.46796802       1.76784679       3.19082389       0.00002531       0.00076356       0.00223070
Ti       1.46796573       4.59574860       3.40399843       0.00001375      -0.00294833       0.00238221
Ti       4.40398534       4.59531136       3.40522283      -0.00001157      -0.00256234       0.00340376
Ti       0.00098836       6.72437128       4.72174532      -0.00030334      -0.00260108       0.00097718
Ti       2.93495038       6.72436446       4.72171832       0.00032322      -0.00255830       0.00093919
Ti       2.93729763       2.87505702       5.33387187      -0.00017071      -0.00259963       0.00034315
Ti       5.87060841       2.87504515       5.33392759       0.00021805      -0.00250276       0.00037340
Ti       4.40395787       5.00496337       6.49282143       0.00004500      -0.00296592      -0.00057009
Ti       1.46795197       5.00325362       6.49225499       0.00004926      -0.00425028      -0.00103800
Ti       4.40397236       0.93060516       6.97467833      -0.00004109      -0.00499325       0.00056863
Ti       1.46796885       0.93048795       6.96906017      -0.00003105      -0.00514397       0.00130756
Ti       2.93507234       3.08579653       8.15973221      -0.00038391      -0.00575286      -0.00062598
Ti       0.00089329       3.08581944       8.15974696       0.00043874      -0.00587652      -0.00066574
Ti       2.93808047       6.01587003       8.75979310      -0.00012644      -0.00242487       0.00058020
Ti       5.86982655       6.01585781       8.75985162       0.00018493      -0.00243963       0.00046887
Ti       4.40399204       1.28048589       9.94746271      -0.00003733      -0.00543048       0.00274056
Ti       1.46799453       1.27217068       9.93661858       0.00002205      -0.00124629       0.00200692
Ti       4.40401095       4.10075834      10.42878520      -0.00004886      -0.00290310       0.00094270
Ti       1.46798304       4.09804908      10.41388878       0.00004811      -0.00365758       0.00066133
Ti       2.94785632       6.21592127      11.58637242      -0.00364259      -0.00306324      -0.00009822
Ti       5.86021589       6.21594777      11.58646193       0.00347887      -0.00300578      -0.00020836
Ti       2.92132166       2.38257586      12.18990208       0.00055222      -0.00130187       0.00710579
Ti       0.01465331       2.38256856      12.18987222      -0.00049350      -0.00130173       0.00712211
Ti       1.46803460       4.49122854      13.50968800       0.00002637      -0.00623743       0.00404148
Ti       4.40401702       4.48590322      13.55777847      -0.00000320      -0.01187792       0.00672162
Ti       4.40395456       0.45357698      13.70588689      -0.00000751      -0.00672324      -0.00971740
Ti       1.46814000       0.42520720      13.69649333      -0.00008317       0.01144802      -0.00453027
Ti       0.04967098       2.46011840      15.01512274       0.00088062      -0.00788043       0.00172981
Ti       2.88651816       2.46021782      15.01520641      -0.00088423      -0.00787178       0.00167437
Ti       5.81024502       5.98190815      15.62920994       0.00015044       0.00804789       0.00007882
Ti       2.99786678       5.98181082      15.62929059      -0.00014270       0.00800060      -0.00001107
Ti       4.40425347       3.86940593      16.84257612      -0.00017467       0.00896360      -0.00194617
Ti       1.46794967       3.99821267      16.82448263      -0.00002252       0.01010285      -0.00940360
Al       4.40405217       1.08714889      17.11084019      -0.00008271       0.00043622       0.00289226
Ti       1.46802603       1.13970249      17.15796182      -0.00006883       0.00193385       0.01043167
Ti       5.84389591       5.86758360      18.39931190      -0.00214054       0.00226711      -0.00544264
Ti       2.96417070       5.86757167      18.39935934       0.00223291       0.00231173      -0.00532576
Ti       2.91643215       2.81083895      18.97715024      -0.00402146       0.01000178       0.00147721
Ti       0.01971513       2.81077814      18.97724840       0.00408404       0.01012862       0.00131447
Ti       4.40400699       0.67908528      20.14750354       0.00001203       0.00475772      -0.00329489
Ti       1.46807838       0.67476360      20.20222443       0.00001052       0.00647539       0.00795565
Ti       1.46802811       4.73683634      20.62891422       0.00008184       0.00484236      -0.00089484
Ti       4.40403718       4.74150980      20.61031450       0.00000990       0.00461341      -0.00493249
Ti       2.94324001       2.58129313      21.81558609       0.00163224       0.00428532      -0.00183180
Ti       5.86484277       2.58131077      21.81564367      -0.00175593       0.00423554      -0.00189824
Ti       2.94410952       6.53237003      22.41342082       0.00358784       0.00326899      -0.00185687
Ti       5.86393259       6.53236918      22.41341739      -0.00355867       0.00328175      -0.00186667
Ti       4.40399354       4.37663108      23.60160672       0.00002061       0.00270897      -0.00460223
Ti       1.46801332       4.37167226      23.61072257       0.00000651       0.00161789      -0.00207126
Ti       4.40402969       1.55472864      24.08180712      -0.00006934       0.00251015       0.00086537
Ti       1.46800975       1.55202420      24.07657666       0.00016806       0.00325651      -0.00655417
Ti       2.93424671       6.31849203      25.24074220      -0.00065769       0.00232319      -0.00158540
Ti       0.00173454       6.31847170      25.24071004       0.00068278       0.00235174      -0.00154074
Ti       5.87133713       3.27484302      25.85055740       0.00042162      -0.00036939      -0.00237013
Ti       2.93664842       3.27482179      25.85057388      -0.00041872      -0.00036849      -0.00242723
Ti       1.46796942       1.14812882      27.16693488       0.00003373      -0.00337560       0.00009124
Ti       4.40398620       1.14848988      27.16910519      -0.00003604      -0.00214898      -0.00105562
