100
Lattice="4.4265 -2.555641 0.0 3.767997 6.526363 -0.031456 0.0 0.0 45.781652" Properties=species:S:1:pos:R:3:forces:R:3 job_name=SegregationProfile-CSL13-V-V-48-d-0.01 top_level=SegregationProfile solute=V energy=-775.49952 stress_kbar_3x3="_JSON [[-36.99629053, -1.73528432, 0.6583991], [-1.73528433, -40.47365436, 1.11522976], [0.65839911, 1.1152297, -18.44018906]]" pbc="T T T"
Ti       2.47897602      -0.89150265       0.02205625      -0.00443354      -0.00697764      -0.00101250
Ti       5.77464023       1.55672999       0.00640431      -0.00336922      -0.00905298      -0.00130063
Ti       4.99085138      -0.80040781       1.38700724       0.00330463      -0.00417876       0.00413419
Ti       4.59799989       3.77764370       1.37139527      -0.00646355      -0.00013484       0.00349198
Ti       7.10656357       3.86436317       2.63734158      -0.00571549      -0.00272394      -0.00352334
Ti       3.81180256       1.41562027       2.65262377       0.00029660      -0.00518787      -0.00208109
Ti       1.66618298      -0.43864977       2.87848253      -0.00063041      -0.00735546       0.00008379
Ti       2.14682767       3.63459028       2.86299052      -0.00652600      -0.00404143      -0.00224819
Ti       4.72570522       3.65930510       4.16740972       0.00509830      -0.00382667       0.00296106
Ti       4.82398666      -0.74827292       4.18344047      -0.00267928      -0.00018227       0.00175893
Ti       3.44883097       5.87561328       5.26560163      -0.00595223      -0.00591339       0.00785812
Ti       2.95648586       1.80912449       5.28157878      -0.00030593      -0.00507107       0.00515303
Ti       2.41334181      -0.95390957       5.75760613      -0.00119449      -0.00486527      -0.00376109
Ti       5.75377190       1.46822506       5.74145060       0.00161539      -0.00282415      -0.00375195
Ti       4.29087846       3.76200566       6.96087687      -0.00006374      -0.00524203      -0.00303349
Ti       5.13348458      -1.07631188       6.97484388      -0.00774518       0.00116561       0.00495712
Ti       6.93194294       3.60024770       7.86870756       0.00005678       0.00333399      -0.00113605
Ti       3.67293777       1.13153384       7.88373948       0.00237610      -0.00312643      -0.00274840
Ti       6.38211705       0.88916860       8.61113525      -0.00131165       0.00177801       0.00211488
Ti       1.60011234      -0.70077123       8.62885537       0.00473955      -0.00142949       0.00227128
Ti       4.78946571       3.18821588       9.69610908      -0.00157593      -0.00607073       0.00339471
Ti       4.38801901      -0.93083609       9.70935829      -0.00664703      -0.00143255       0.00715826
Ti       3.18368429       5.41247742      10.49719165       0.00156397       0.00543615      -0.00255385
Ti       2.69238681       1.34510006      10.51152330       0.01104680       0.00234566      -0.00300450
Ti       5.90166473       5.19917098      11.44084398      -0.00065215       0.00107930      -0.00549280
Ti       5.57823147       1.03744300      11.45546417       0.00024339       0.00095447      -0.00465460
Ti       0.59098697       0.91992368      12.38915476       0.00727906      -0.00074511      -0.00154182
Ti       3.86515303       3.37984265      12.37952896      -0.00003742      -0.00026985      -0.00081354
Ti       3.31573660       0.65210707      13.19791252       0.00300301       0.00650500      -0.00249262
Ti       6.70072344       3.04611721      13.18448066      -0.00307216       0.00325650      -0.00702696
Ti       5.09826644       5.36307811      14.28004264      -0.00136844       0.00682039      -0.00929256
Ti       6.11399750       0.41774288      14.30060138       0.00001189       0.00699625      -0.01413934
Ti       4.55203006       2.64763320      15.00482494       0.00294241       0.00493479      -0.00703747
Ti       4.03872719      -1.41949976      15.00677880       0.00724543       0.00803849      -0.00092528
Ti       7.18180322       2.49885889      15.92286560       0.00138709      -0.00207447      -0.00393582
Ti       2.61024089       0.79696086      15.93955031      -0.01455660      -0.00408700       0.00228704
Ti       5.73785069       4.80295371      17.14997241       0.00369439      -0.00500063       0.00424662
Ti       5.30417493       0.69286918      17.16357377      -0.00516483      -0.00184445       0.00554441
Ti       3.61465258       2.94963490      17.60818410       0.00826508      -0.00344576       0.00751068
Ti       0.33670536       0.48838548      17.60740760       0.00321542       0.00366877       0.00250995
Ti       2.88856513       0.50565810      18.73513657      -0.00259117       0.00210682       0.01037640
Ti       6.75791884       2.61010930      18.70821036      -0.00327764       0.01399621      -0.00293249
Ti       4.91670091       5.19962598      20.00507410       0.01543242       0.00111777      -0.00486031
Ti       1.62060482       2.74250889      20.04839716      -0.00535618       0.00431165      -0.00958721
Ti       4.38294109       2.41541796      20.27354947       0.01222079       0.00863899      -0.00708490
Ti       3.90924074      -1.66844094      20.22728295      -0.00442628       0.00869241       0.01282420
Ti       6.91326185       2.47611917      21.49043710       0.01331749      -0.00147975      -0.00900308
Ti       2.73239867       0.56871247      21.52283862      -0.01272289      -0.00366451       0.01143081
V        3.55385113       2.82621713      22.86782599       0.00142899       0.00652174       0.00044326
Ti       4.66439047      -2.12167764      22.88203143      -0.00591317      -0.00275865       0.00084556
Ti       5.63800148       4.65472769      22.87043116      -0.00174207       0.00333053       0.00111217
Ti       5.24913842       0.66764736      22.88423772       0.01068122       0.00883679       0.00052818
Ti       2.72443132       0.57534668      24.24739850      -0.01246327      -0.00366414      -0.01192987
Ti       6.92413805       2.47415385      24.24888195       0.01472081      -0.00025178       0.00639307
Ti       3.91302465      -1.65790440      25.52956803      -0.00349038       0.00981480      -0.01112111
Ti       4.38999830       2.42596995      25.45347374       0.00879758       0.00909431       0.01120703
Ti       1.62185084       2.75476529      25.72218110      -0.00559746       0.00259525       0.01240513
Ti       4.92362666       5.20934466      25.73838672       0.01554070      -0.00008227       0.00506338
Ti       2.91775758       0.50993932      27.04002389       0.00023122       0.00251666      -0.00702292
Ti       6.74307700       2.64105961      27.03748015      -0.00572497       0.01324307      -0.00016538
Ti       0.35684917       0.52329128      28.13574752       0.00315775       0.00462322      -0.00545818
Ti       3.62937384       2.98527972      28.10156893       0.00768475      -0.00399840      -0.00894646
Ti       5.33091069       0.71734251      28.61307312      -0.00344751      -0.00215263      -0.00651657
Ti       5.74059055       4.84042054      28.59602168       0.00270638      -0.00482899      -0.00518751
Ti       7.23679267       2.52456908      29.81346203       0.00088402      -0.00041466       0.00607427
Ti       2.60499223       0.85809865      29.82932041      -0.01150308      -0.00196040      -0.00246937
Ti       4.58786426       2.71443620      30.69840957       0.00729714       0.00541739       0.00507206
Ti       4.07510111      -1.35737015      30.72987612       0.00615035       0.00995403      -0.00036308
Ti       6.13341738       0.48188275      31.47160226      -0.00189830       0.00741553       0.01600609
Ti       5.14204806       5.41338930      31.46215779      -0.00162736       0.00701704       0.01099520
Ti       3.37664649       0.70689040      32.55191974       0.00150857       0.00690856       0.00299743
Ti       6.71803085       3.12446055      32.53402586      -0.00253871       0.00371352       0.00552367
Ti       3.91832270       3.45116665      33.33181543      -0.00012711      -0.00194006      -0.00113646
Ti       0.62611386       1.00447141      33.35388958       0.00559838      -0.00356905       0.00029474
Ti       2.17466355      -1.25245203      34.34184477      -0.00065592       0.00219863       0.00402368
Ti       5.62358826       1.11095897      34.32819044       0.00179405       0.00244683       0.00439467
Ti       3.23950240       5.49246820      35.19460657      -0.00020406       0.00292966       0.00263374
Ti       2.73328143       1.43098041      35.21276735       0.00937239       0.00147472       0.00170697
Ti       4.79780169       3.28173784      36.02889441      -0.00101753      -0.00250876      -0.00423851
Ti       4.46408366      -0.87608897      36.04699965      -0.00499198       0.00036268      -0.00777883
Ti       6.42568420       0.94345126      37.18470717       0.00071514       0.00185988       0.00046697
Ti       1.62661845      -0.63603061      37.19761945       0.00444845      -0.00166601       0.00190299
Ti       6.98153444       3.67591586      37.79839023      -0.00123008      -0.00336429      -0.00106655
Ti       3.71484925       1.21288326      37.81477701      -0.00206780      -0.00826881       0.00310713
Ti       4.38147675       3.77172052      38.78683547      -0.00111409      -0.00498922       0.00482879
Ti       5.09727071      -0.99363595      38.80377622      -0.00947643       0.00153216      -0.00210468
Ti       5.75267777       1.49837415      40.06957605       0.00007792      -0.00196877      -0.00018411
Ti       2.44097716      -0.94041890      40.08461390      -0.00128678      -0.00336864      -0.00104707
Ti       3.46307437       5.90908686      40.40193066      -0.00340207      -0.00205166      -0.00648836
Ti       2.97889387       1.83796008      40.41752160       0.00176738      -0.00308095      -0.00453477
Ti       4.68675561       3.69602492      41.59291083       0.00097494      -0.00419054      -0.00245944
Ti       4.87548075      -0.76386819      41.60838907       0.00067154      -0.00408408      -0.00199942
Ti       2.14770971       3.63733516      42.93431072      -0.00463159      -0.00537389       0.00458757
Ti       1.66844233      -0.43656819      42.95031200      -0.00306762      -0.00618309       0.00234234
Ti       7.11158821       3.86659880      43.05134506      -0.00541708      -0.00393060       0.00339928
Ti       3.81152245       1.42112462      43.06747259      -0.00083973      -0.00603436       0.00287560
Ti       4.62052128       3.76547342      44.37797156      -0.00589741      -0.00314321      -0.00432654
Ti       4.96902957      -0.78704010      44.39379025       0.00067605      -0.00556769      -0.00456654
Ti       3.48556626       5.97340403      45.74031860      -0.00228081      -0.00623034      -0.00050352
Ti       3.02211790       1.89022991      45.75604103      -0.00374788      -0.00510976      -0.00070732
