64
Lattice="5.872 0.0 0.0 0.0 6.890708 0.0 0.0 0.0 27.394398" Properties=species:S:1:pos:R:3:forces:R:3 job_name=SegregationProfile-T1g-V-V-34-d-1.29 top_level=SegregationProfile solute=V energy=-495.94644344 stress_kbar_3x3="_JSON [[-12.22294408, -0.0029385, -0.00279152], [-0.0029385, -11.43988376, -0.18219649], [-0.00279151, -0.18219649, -22.61473429]]" pbc="T T T"
Ti       4.40336532       5.21555843      27.38449854      -0.00098690      -0.00508598       0.00292530
Ti       1.46866708       5.21554046      27.38451528       0.00090871      -0.00515881       0.00290088
Ti       5.87192797       3.19116557       1.28286699       0.00013865       0.00208124       0.00425353
Ti       2.93606154       3.19149895       1.28374084      -0.00009515       0.00212747       0.00406661
Ti       0.00003402       6.63290607       1.90653832      -0.00005402       0.00071490      -0.00231523
Ti       2.93595892       6.63375905       1.90836511       0.00001591       0.00371501      -0.00060333
Ti       4.40370210       1.76910668       3.19727482      -0.00266283      -0.00736735      -0.00268423
Ti       1.46826922       1.76914826       3.19731125       0.00258688      -0.00729298      -0.00270611
Ti       1.46834029       4.59490639       3.41417267       0.00195994       0.00335077      -0.00317848
Ti       4.40366280       4.59488117       3.41417653      -0.00206379       0.00344058      -0.00321188
Ti       5.87198186       6.72505897       4.73022193       0.00013096       0.00631698      -0.00251911
Ti       2.93597369       6.72847861       4.73129257       0.00022807       0.00566142      -0.00892671
Ti       2.93599563       2.87571352       5.34658475      -0.00004834       0.00004077      -0.00022087
Ti       5.87192684       2.87620432       5.33806935       0.00018916       0.00161660       0.00976670
Ti       4.40130616       5.00671195       6.50215766       0.00090369       0.00045525       0.00336328
Ti       1.47065473       5.00671027       6.50218432      -0.00083740       0.00041963       0.00330966
Ti       4.40211244       0.93652257       6.98255081       0.00000022       0.00024617      -0.00137652
Ti       1.46983609       0.93655059       6.98251126       0.00007172       0.00039562      -0.00130354
Ti       2.93601590       3.09846239       8.17838426      -0.00012487       0.00600606       0.00939829
Ti       5.87198189       3.09787419       8.16604109       0.00011578       0.00664189      -0.00082137
Ti       2.93600625       6.02602510       8.78256609      -0.00013392      -0.00644776       0.00822836
Ti       5.87198675       6.02322451       8.75982836       0.00009092      -0.00734875       0.00979595
Ti       4.41192977       1.29430081       9.94708053       0.00013690       0.00098822       0.01331908
Ti       1.46008064       1.29428185       9.94706428       0.00003912       0.00112306       0.01340841
Ti       4.40723226       4.12545866      10.44607116       0.00073459       0.00219701       0.00603817
Ti       1.46482848       4.12543289      10.44606474      -0.00073045       0.00214321       0.00606161
Ti       2.93592441       6.24175471      11.62798085      -0.00026370      -0.00062894      -0.00711913
Ti       0.00017323       6.25811470      11.59720694       0.00011119       0.00074209       0.00222069
Ti       2.93616788       2.39345189      12.16691187      -0.00012072      -0.00540568      -0.00214082
Ti       5.87190566       2.37199067      12.22363758       0.00010811      -0.00435288      -0.00766940
Ti       1.45491743       4.49039818      13.52849955       0.00070963       0.00048345      -0.00508463
Ti       4.41715422       4.49060891      13.52849133      -0.00058506       0.00069808      -0.00493934
Ti       4.45579110       0.48817290      13.76344843       0.00106908      -0.00245587      -0.00186683
Ti       1.41638050       0.48867648      13.76351257      -0.00131725      -0.00204335      -0.00199716
V        5.87084875       2.47838237      15.00705092      -0.00033843      -0.00305839      -0.00630282
Ti       2.93709227       2.47584543      14.95523078       0.00010985      -0.00830088      -0.01807870
Ti       0.00042802       5.92279223      15.62077952       0.00004349      -0.00044236      -0.00039433
Ti       2.93572240       5.93177731      15.58392519      -0.00008748      -0.00392876       0.00452809
Ti       4.43092286       3.87920629      16.78739273      -0.00093436       0.01222934       0.01212375
Ti       1.44098284       3.87876899      16.78716239       0.00095555       0.01216644       0.01185698
Ti       4.41937083       1.06178712      17.05441433      -0.00271198      -0.00316231       0.01052124
Ti       1.45289078       1.06177464      17.05417207       0.00253138      -0.00329209       0.01040730
Ti       0.00018530       5.81365476      18.39388870       0.00013317      -0.00595473      -0.00019198
Ti       2.93584544       5.82638645      18.36968328       0.00010724      -0.00377241       0.00428869
Ti       2.93609140       2.80892901      18.96437354       0.00014674      -0.00138997      -0.00564861
Ti      -0.00002345       2.80224667      18.99187173      -0.00028450       0.00074162      -0.00444983
Ti       4.39835434       0.66990155      20.13748752      -0.00063429       0.00054825      -0.00566035
Ti       1.47362285       0.66989834      20.13743895       0.00067005       0.00070504      -0.00551107
Ti       1.47136582       4.73767351      20.63905018      -0.00127936       0.00307625      -0.01167720
Ti       4.40069926       4.73762544      20.63899851       0.00124770       0.00321994      -0.01175950
Ti       2.93601046       2.57653436      21.80213277      -0.00006691      -0.00655347      -0.00191222
Ti       0.00001450       2.57750749      21.82041658      -0.00000768      -0.00811178      -0.01016316
Ti       2.93596181       6.54414783      22.41714358       0.00006165       0.00721316      -0.00233248
Ti       0.00001032       6.54001089      22.41583381      -0.00000556       0.00255224      -0.00268111
Ti       4.40189842       4.37880820      23.60149210      -0.00046145      -0.00130688       0.00115660
Ti       1.47008549       4.37881857      23.60151180       0.00052432      -0.00126985       0.00123382
Ti       4.40160533       1.56338701      24.08335138       0.00086518      -0.00031279      -0.00333275
Ti       1.47039005       1.56340978      24.08338217      -0.00073853      -0.00056947      -0.00353413
Ti       2.93601214       6.32246498      25.24245220      -0.00009862      -0.00048318      -0.00650766
Ti       0.00002765       6.32224508      25.24265132      -0.00000565       0.00051527      -0.00579171
Ti       5.87198571       3.28060407      25.85433784       0.00002723       0.00245275       0.00134514
Ti       2.93600208       3.28175311      25.85709060      -0.00000576       0.00515684       0.00475470
Ti       1.46815700       1.15042510      27.17325292       0.00085617       0.00169559       0.00272053
Ti       4.40383219       1.15043212      27.17326922      -0.00084400       0.00161943       0.00262093
