100
Lattice="4.4265 -2.555641 0.0 3.767997 6.526363 -0.031456 0.0 0.0 45.781652" Properties=species:S:1:pos:R:3:forces:R:3 job_name=SegregationProfile-CSL13-Al-Al-61-d-5.27 top_level=SegregationProfile solute=Al energy=-771.65845085 stress_kbar_3x3="_JSON [[-35.76032045, -1.97720828, -0.00790607], [-1.97720831, -38.59379015, 1.4657901], [-0.00790604, 1.4657901, -16.71640058]]" pbc="T T T"
Ti       2.41713911      -0.95871949       0.06133611       0.00408598      -0.00303315      -0.00122709
Ti       5.71681784       1.48707664       0.04660535      -0.00145844      -0.00444181      -0.00201021
Ti       4.95084636      -0.87819614       1.39252626       0.00045978      -0.00268883      -0.00218036
Ti       4.52616371       3.72020634       1.37744803      -0.00086630      -0.00282996       0.00289094
Ti       7.05246990       3.79510899       2.61434833       0.00360688      -0.00220949      -0.00226433
Ti       3.75916062       1.34526700       2.62814312      -0.00264521      -0.00103801      -0.00072710
Ti       1.62099618      -0.50538451       2.90268079      -0.00201018      -0.00085258      -0.00216048
Ti       2.09061198       3.57167292       2.88538454       0.00073324      -0.00086454      -0.00191961
Ti       4.69795998       3.58481213       4.17166232       0.00023385       0.00096384       0.00135540
Ti       4.75952243      -0.80127450       4.18893181       0.00090125       0.00096129      -0.00127833
Ti       3.40159256       5.80388752       5.23905813      -0.00407775      -0.00168402      -0.00256755
Ti       2.90765466       1.73980138       5.25509830       0.00178859      -0.00335509      -0.00206078
Ti       2.36154268      -1.01227833       5.76780115      -0.00560680       0.00481164       0.00223100
Ti       5.71887303       1.40164224       5.75302406       0.00614369       0.00132813       0.00146769
Ti       4.23494543       3.70836042       6.95622507      -0.00394421       0.00282487       0.00087597
Ti       5.10830716      -1.14582073       6.97219433       0.00334508      -0.00249158       0.00062277
Ti       6.89044124       3.53584756       7.83947040      -0.00111753      -0.00133205      -0.00288297
Ti       3.62977041       1.06429698       7.85358596      -0.00211372       0.00165837      -0.00134859
Ti       6.33702227       0.83816096       8.61370094      -0.00086424      -0.00043883       0.00286876
Ti       1.57079272      -0.76215675       8.62994857      -0.00062357      -0.00076113       0.00374207
Ti       4.76570704       3.12678241       9.68018003      -0.00119181      -0.00205173       0.00122274
Ti       4.34232863      -0.97906082       9.69628553      -0.00093377      -0.00255941      -0.00030090
Ti       3.14193711       5.36103928      10.46935452      -0.00172713      -0.00018684      -0.00197303
Ti       2.66207477       1.28856908      10.48470928       0.00272597       0.00005275      -0.00182933
Ti       5.86829960       5.15319348      11.44365722       0.00204002      -0.00323450       0.00149053
Ti       5.54659586       0.98725616      11.46126844       0.00086986      -0.00140858       0.00179833
Ti       0.56536453       0.86466752      12.36059822      -0.00523582      -0.00516180      -0.00051235
Ti       3.82780746       3.33401453      12.34557094      -0.00197244      -0.00214050      -0.00157240
Ti       3.26992105       0.61646809      13.17649261      -0.00415365      -0.00051301       0.00175957
Ti       6.68602441       2.99371021      13.16079214       0.00299709      -0.00166849       0.00276701
Ti       5.07016561       5.32555128      14.29394081      -0.00047524       0.00201513       0.00208815
Ti       6.10114140       0.37856845      14.31096668       0.00010559       0.00075354       0.00080481
Ti       4.51808956       2.59579689      14.94775856      -0.00052096      -0.00321528      -0.00009468
Ti       4.01351671      -1.46213180      14.96441430      -0.00267747      -0.00318518       0.00224442
Ti       7.12612958       2.49397571      15.91398339      -0.00012800       0.00220046      -0.00314178
Ti       2.62302285       0.74243526      15.92979748      -0.00117951      -0.00181673       0.00242094
Ti       5.74411591       4.76902491      17.18167786      -0.00273981       0.00339997      -0.00005126
Ti       5.28756189       0.68303867      17.19950082      -0.00195883      -0.00672004       0.00376775
Ti       3.60387460       2.91511762      17.54441235       0.00554265      -0.00292315       0.00234863
Ti       0.32515888       0.45784901      17.55743438      -0.00331507       0.00581587       0.00188032
Ti       2.85604292       0.50425230      18.73026950       0.00063057      -0.00381688      -0.00768811
Ti       6.80828851       2.57392151      18.71646291       0.00219000       0.00296537      -0.00095200
Ti       4.92394660       5.18973731      20.05808721      -0.00202300       0.00276357      -0.00339539
Ti       1.64486000       2.73077327      20.07530950       0.00569899      -0.00107633      -0.00045573
Ti       4.39305099       2.39272817      20.18336139      -0.00187662      -0.00254868      -0.00093794
Ti       3.91710690      -1.67591717      20.19680144      -0.00134478       0.00402874      -0.00356122
Ti       6.87506119       2.51071231      21.50145173       0.00373805      -0.00600481       0.00405006
Ti       2.76717494       0.51788621      21.52036870       0.00087854       0.00458214      -0.00181929
Ti       3.56805200       2.84687723      22.85037610      -0.00170875       0.00685082       0.00834594
Ti       0.29023741       0.41509725      22.84905207       0.00771238       0.00104857       0.00975141
Ti       5.73052590       4.70471736      22.93540089      -0.00850585       0.00735469      -0.00255629
Ti       5.24851826       0.64762102      22.94160706       0.00813471       0.00175249       0.00264923
Ti       2.71105686       0.54084195      24.32606007       0.00644002       0.00543612       0.00032459
Ti       6.97371989       2.47822941      24.29811896      -0.00107723      -0.00686447       0.00091977
Ti       3.99216989      -1.63120496      25.48470010       0.00915368       0.00381040      -0.00247351
Ti       4.48980464       2.31296498      25.41099999      -0.00177906      -0.00072301      -0.01472956
Ti       1.76182178       2.77730672      25.77641586      -0.00466963      -0.00002757      -0.00866572
Ti       4.95186372       5.11371734      25.89621243      -0.00173481       0.00469846      -0.00289724
Ti       3.03016806       0.46811907      27.11367887      -0.00203530      -0.00137189       0.00565611
Ti       6.68818707       2.75299039      27.12473501       0.00530167       0.00020686       0.01074803
Ti       0.43049364       0.62209419      28.05590088      -0.00226407       0.00311115       0.01778618
Al       3.79879247       3.07465106      27.93653619       0.00148659       0.00898377      -0.00025363
Ti       5.47445220       0.73293266      28.70605848       0.00149744       0.00079402       0.00138683
Ti       5.76050010       4.97346721      28.78031432      -0.00361538      -0.00014909       0.00287953
Ti       3.05676604       5.04864959      29.82697994      -0.00829088      -0.00434384      -0.00722694
Ti       2.59097364       1.13589185      29.82604107       0.00245224      -0.00354370       0.00206832
Ti       4.78911281       2.89903870      30.54498504      -0.00153333       0.00060794      -0.00988880
Ti       4.22581380      -1.17685808      30.62064791      -0.00336919       0.00170337      -0.00420346
Ti       6.20618894       0.71568402      31.66053911       0.00225846      -0.00698474      -0.00293795
Ti       5.20584089       5.56987971      31.55914589      -0.00050954      -0.00233571       0.00274205
Ti       3.49216686       0.84522608      32.47536018       0.00329961      -0.00527102       0.00036927
Ti       6.80906070       3.41896103      32.43253082      -0.00094156       0.00349031      -0.00699309
Ti       4.12450490       3.56233123      33.25478717      -0.00181990      -0.00334681      -0.00862327
Ti       5.08549854      -1.32423972      33.30342604       0.00226686       0.00641715       0.00393776
Ti       2.24399457      -1.09653945      34.47180474       0.00513787       0.00192249      -0.00304296
Ti       5.61074172       1.28774498      34.46331333      -0.00056522       0.00099168       0.00788147
Ti       3.30214993       5.65392623      35.03760626       0.00213791       0.00765945      -0.00069891
Ti       2.81547192       1.65586865      35.04284284       0.01237453      -0.00199962       0.00247925
Ti       4.67176067       3.48215111      36.05017412      -0.00040243      -0.00354617       0.00683362
Ti       4.64318999      -0.86910972      36.05415381      -0.00041670       0.00797950       0.00014331
Ti       6.44667160       0.96015811      37.33033702      -0.00590107       0.00841527       0.00659794
Ti       1.55848477      -0.57039586      37.33158216       0.00227842       0.00103778      -0.00498150
Ti       6.99206840       3.73956792      37.64322739      -0.00319259      -0.00314154      -0.00247027
Ti       3.69744877       1.27607845      37.65201209       0.01268297      -0.00744848      -0.00907969
Ti       4.45939410       3.68403231      38.84205630       0.01395295       0.00145174       0.00383134
Ti       4.92879208      -0.93120761      38.85717163      -0.00387199      -0.00134683      -0.00506310
Ti       5.68209361       1.45768999      40.16860172       0.00173532       0.01000970       0.00462213
Ti       2.39102624      -0.98929398      40.18694747       0.00040095       0.00075731      -0.00405954
Ti       3.39619497       5.87074438      40.30499417      -0.01035416      -0.00127002      -0.00045305
Ti       2.92962841       1.79079270      40.32139246       0.00044762      -0.00214677       0.00407651
Ti       4.57154596       3.66180468      41.61969562       0.00104381       0.00154328      -0.00304132
Ti       4.86006593      -0.85749168      41.63667720      -0.00233462      -0.00103093       0.00058471
Ti       2.07462286       3.57118482      42.99804789      -0.00326842       0.00292570       0.00282744
Ti       1.61066501      -0.51144418      43.01539681       0.00072299       0.00121661      -0.00100662
Ti       7.05095762       3.78880061      43.00691656      -0.00424267       0.00043458      -0.00029873
Ti       3.73807394       1.35234087      43.02235513      -0.00762098       0.00000272       0.00070757
Ti       4.57504177       3.68119656      44.38570317      -0.00323558      -0.00148883      -0.00200705
Ti       4.88540352      -0.84834068      44.40187575      -0.00106884      -0.00124008       0.00423255
Ti       3.42126190       5.90112477      45.71194455       0.00430596      -0.00056007       0.00016047
Ti       2.96208350       1.81677850      45.72904336      -0.00682906      -0.00530541      -0.00067612
