100
Lattice="4.4265 -2.555641 0.0 3.767997 6.526363 -0.031456 0.0 0.0 45.781652" Properties=species:S:1:pos:R:3:forces:R:3 job_name=SegregationProfile-CSL13-Al-Al-65-d-6.97 top_level=SegregationProfile solute=Al energy=-771.57453687 stress_kbar_3x3="_JSON [[-34.71487623, -1.46167709, 0.13349789], [-1.46167712, -39.14469405, 2.13083885], [0.13349791, 2.13083883, -17.56200086]]" pbc="T T T"
Ti       2.49732364      -0.86512745       0.02633173      -0.00497510      -0.00495480      -0.00200146
Ti       5.78730634       1.58648936       0.01004120      -0.00296187      -0.00574237      -0.00151071
Ti       5.01235029      -0.77516168       1.38938003      -0.00367446      -0.00411361      -0.00103504
Ti       4.60788927       3.80936153       1.37374340      -0.00254987      -0.00560232      -0.00021681
Ti       7.11915226       3.89131164       2.62300598      -0.00223024      -0.00549898       0.00030793
Ti       3.82788916       1.44059716       2.63856791      -0.00377339      -0.00504917       0.00044026
Ti       1.68156241      -0.41330780       2.88573656      -0.00288338      -0.00415745      -0.00095222
Ti       2.16025175       3.66109747       2.86996721      -0.00252803      -0.00470463      -0.00137537
Ti       4.75459247       3.67158686       4.17011677      -0.00509190      -0.00311122      -0.00127371
Ti       4.82006019      -0.71700704       4.18584693      -0.00081511      -0.00574377      -0.00160564
Ti       3.45562095       5.88545432       5.24097187      -0.00170358      -0.00202969       0.00092906
Ti       2.96028369       1.82056866       5.25666142      -0.00098811      -0.00268287       0.00092025
Ti       2.41520054      -0.93701639       5.76626676      -0.00110045      -0.00308467      -0.00189217
Ti       5.76652661       1.47895379       5.75042036      -0.00203919      -0.00237380      -0.00163323
Ti       4.27240298       3.77699217       6.95236685       0.00101062      -0.00226185      -0.00157365
Ti       5.15247359      -1.08207199       6.96806171      -0.00257976      -0.00003279      -0.00143085
Ti       6.92416206       3.59705437       7.83781949       0.00090157      -0.00036521       0.00130560
Ti       3.67065107       1.12451275       7.85353670      -0.00073382       0.00029864       0.00127892
Ti       6.37611403       0.88983043       8.61124277      -0.00023565      -0.00025412      -0.00093889
Ti       1.60021149      -0.70378236       8.62702680      -0.00020652      -0.00027701      -0.00109457
Ti       4.79149768       3.17801393       9.67728183      -0.00020537       0.00018458       0.00004753
Ti       4.37440065      -0.93186761       9.69281323       0.00031385      -0.00008950       0.00033831
Ti       3.17289576       5.40848308      10.46882844       0.00029153      -0.00004406       0.00198085
Ti       2.68861608       1.33729788      10.48465538      -0.00043115      -0.00002035       0.00188044
Ti       5.89472600       5.19485178      11.42822912      -0.00009178       0.00000172       0.00129536
Ti       5.56934014       1.03162928      11.44405313      -0.00025806      -0.00004799       0.00123878
Ti       0.58688751       0.90818621      12.36548118      -0.00018687       0.00022705       0.00160944
Ti       3.85269572       3.37428875      12.34977913       0.00046123      -0.00018355       0.00149123
Ti       3.30118943       0.64673657      13.17423501       0.00012131      -0.00000761       0.00201517
Ti       6.69503403       3.03825988      13.15832578      -0.00002357       0.00030186       0.00204981
Ti       5.08589250       5.35305802      14.26540088       0.00001707       0.00020611       0.00165320
Ti       6.11137935       0.41015844      14.28079586       0.00052635      -0.00025924       0.00098954
Ti       4.53734449       2.63061661      14.96559966      -0.00038598       0.00087063       0.00174302
Ti       4.02800381      -1.42509296      14.98181169       0.00084289       0.00017247       0.00082298
Ti       7.16158144       2.49697557      15.90080390       0.00073542       0.00116578       0.00117265
Ti       2.59920860       0.78022163      15.91724525       0.00145060       0.00064191       0.00159222
Ti       5.73382562       4.78163529      17.13893243       0.00120943       0.00212784       0.00022795
Ti       5.29248123       0.68562528      17.15429952       0.00136933       0.00099823       0.00091882
Ti       3.60513702       2.92926190      17.56646233       0.00144594       0.00232326       0.00239298
Ti       0.32627302       0.47049478      17.58288542       0.00162173       0.00206801       0.00023404
Ti       2.87441049       0.49022583      18.71258781       0.00112028       0.00253652       0.00160668
Ti       6.77556744       2.58991537      18.69681392       0.00028855       0.00174644       0.00272043
Ti       4.90994201       5.18214059      20.01245720       0.00320958       0.00332726       0.00091331
Ti       1.62699204       2.72908793      20.02570143       0.00177223       0.00209340       0.00115509
Ti       4.37854576       2.39478079      20.20335229       0.00201597       0.00349360       0.00064464
Ti       3.90474592      -1.68152800      20.21955155       0.00158449       0.00217379       0.00213123
Ti       6.87823789       2.48461910      21.48845136       0.00521608       0.00399455      -0.00170518
Ti       2.73180797       0.52898946      21.50484094       0.00366282       0.00455995      -0.00152445
Ti       3.57225592       2.83967979      22.88528104       0.00460259       0.00360816      -0.00043027
Ti       0.26958599       0.39236065      22.90184427       0.00342809       0.00574706       0.00201217
Ti       5.70966753       4.70000734      22.86658420       0.00568155       0.00286444      -0.00130010
Ti       5.23659901       0.62063860      22.87445780       0.00515556       0.00316536       0.00356982
Ti       2.74124632       0.51805601      24.28201415       0.00252205       0.00442985       0.00182083
Ti       6.86708309       2.48141404      24.26140014       0.00438280       0.00199539       0.00257543
Ti       3.91032360      -1.69304558      25.59127347       0.00392176       0.00070161      -0.00125837
Ti       4.35797129       2.39563079      25.56679207       0.00607138       0.00029912       0.00174297
Ti       1.62176855       2.71273109      25.74622783       0.00520101       0.00352625      -0.00089811
Ti       4.92704547       5.17926187      25.71197713       0.00530414       0.00679501       0.00098620
Ti       2.89372933       0.50305802      27.05699252       0.00222206      -0.00014367       0.00348422
Ti       6.76208446       2.55544735      27.03960365       0.00669886       0.00019250      -0.00767038
Ti       0.34685055       0.36244305      28.17209445       0.00867271       0.00298640       0.00442314
Ti       3.68300785       2.98958759      28.21506343       0.00158884      -0.00220804      -0.00184459
Ti       5.31087163       0.59745580      28.69591134       0.00332480       0.00223989      -0.00311141
Ti       5.84282602       4.81695614      28.56699741       0.00124387      -0.00211547       0.00409101
Ti       7.14237815       2.56630765      29.82159531       0.00543976       0.00053961      -0.00010049
Al       2.53587701       0.87118935      29.79877287       0.00720932      -0.00008062       0.00371487
Ti       4.56246394       2.58755391      30.77564747       0.00086862       0.00467551      -0.00249572
Ti       4.15712910      -1.30914732      30.74273533       0.00276646      -0.00062277       0.00064300
Ti       1.84807022       3.04441232      31.52059705      -0.00103453       0.00536458       0.00081505
Ti       5.07196782       5.39652897      31.42874836       0.00325543      -0.00182001      -0.00048936
Ti       3.27861194       0.72772416      32.51495392       0.00066472      -0.00008650       0.00384979
Ti       6.70395844       3.19575609      32.54605387      -0.00138560      -0.00157808       0.00048197
Ti       3.95749835       3.45357836      33.35757571      -0.00034095      -0.00194217      -0.00350427
Ti       0.58760367       0.97232893      33.41605131       0.00262993      -0.00283047      -0.00230504
Ti       2.17093623      -1.20889428      34.34952109      -0.00157661       0.00462987      -0.00028628
Ti       5.56767821       1.11186522      34.30020664       0.00237929      -0.00118078      -0.00039273
Ti       3.18532929       5.48158702      35.21634599       0.00108906       0.00336288      -0.00092230
Ti       2.74577388       1.48035163      35.19628590       0.00110790       0.00374012       0.00191465
Ti       4.82034543       3.27944460      36.04151405      -0.00053396       0.00480989      -0.00066852
Ti       4.47026388      -0.87153817      36.08013539       0.00207879       0.00534031      -0.00596195
Ti       6.41952285       0.98386068      37.16831909      -0.00371871       0.00302412       0.00018303
Ti       1.60589687      -0.61543701      37.19718948      -0.00334619       0.00117970       0.00004175
Ti       6.98880010       3.70579735      37.81684816      -0.00438605       0.00353892      -0.00048853
Ti       3.69235506       1.21384320      37.82481271      -0.00393773       0.00001693      -0.00075803
Ti       4.37335002       3.79250510      38.78991375      -0.00023323       0.00103816       0.00280438
Ti       5.11596553      -0.97552014      38.81391208      -0.00617580       0.00165694       0.00232582
Ti       5.76051996       1.52275204      40.05976799      -0.00304826      -0.00018935       0.00055639
Ti       2.44263496      -0.91015177      40.08453106      -0.00416447       0.00192645      -0.00109834
Ti       3.46860322       5.92924644      40.41486161      -0.00452173       0.00218639      -0.00425322
Ti       2.99077767       1.86469735      40.43396035      -0.00438765      -0.00076150      -0.00316938
Ti       4.70626112       3.71854171      41.59179659      -0.00509925      -0.00074112      -0.00181749
Ti       4.88077040      -0.73569568      41.60975622      -0.00129175      -0.00225579       0.00034654
Ti       2.16196498       3.66554230      42.93525633      -0.00458161      -0.00403212      -0.00037759
Ti       1.68014750      -0.40938404      42.95066110      -0.00526422      -0.00506763      -0.00175759
Ti       7.12399452       3.89564574      43.05946056      -0.00447437      -0.00434801      -0.00086222
Ti       3.82572568       1.44849991      43.07443019      -0.00615175      -0.00326861      -0.00374249
Ti       4.63385776       3.79456444      44.37894107      -0.00452121      -0.00623006      -0.00249257
Ti       4.98536095      -0.75817171      44.39403364      -0.00507079      -0.00525500      -0.00172279
Ti       3.50415622       6.00117756      45.73831956      -0.00536563      -0.00467658      -0.00297862
Ti       3.03547262       1.92061558      45.75375067      -0.00343495      -0.00696804      -0.00150810
