64
Lattice="5.088765 0.0 0.0 0.0 9.739025 0.0 0.0 0.0 22.303587" Properties=species:S:1:pos:R:3:forces:R:3 job_name=SegregationProfile-T2-V-V-52-d-6.97 top_level=SegregationProfile solute=V energy=-495.87056199 stress_kbar_3x3="_JSON [[-3.05516328, 0.24743374, -0.71639904], [0.24743372, -20.17376986, 0.10412007], [-0.71639904, 0.10412009, -20.55187338]]" pbc="T T T"
Ti       2.55780044       9.25205059      -0.03787966      -0.00718776       0.00653250       0.00039247
Ti      -0.00951673       4.38765273      -0.01435163      -0.00555505       0.00982690       0.00038027
Ti       1.28222042       1.87834904       0.60070269      -0.00425835       0.00808496      -0.00280889
Ti       3.80662326       6.75066059       0.58665561      -0.00170577       0.00523377      -0.00379676
Ti       2.70657509       4.08139292       1.38939578       0.00663804       0.00032441      -0.00082962
Ti       0.16851168       8.94215410       1.35438294      -0.00273331       0.00301075       0.00729403
Ti       1.02695988       6.22027746       2.10514629      -0.00071283       0.00136607       0.00829466
Ti       3.59215018       1.34953336       2.11301455      -0.00751060      -0.00066689       0.00365657
Ti       0.22313393       3.50173115       2.75524932      -0.00130416      -0.00143539      -0.00080098
Ti       2.76958390       8.37223231       2.73747656       0.00043961      -0.00451964       0.00572095
Ti       1.11109172       0.87172206       3.48618784       0.00004601       0.00019870       0.00647535
Ti       3.64943299       5.74865050       3.49523760      -0.00108428      -0.00053363       0.00050942
Ti       2.75790141       3.10923228       4.18406739       0.00080433       0.00257029       0.00143333
Ti       0.21457972       7.98268644       4.17563788       0.00039076      -0.00120798       0.00553816
Ti       3.61073185       0.43604725       4.84633907       0.00080427       0.00238025       0.00489212
Ti       1.06634445       5.30908680       4.84628706      -0.00192312      -0.00050250       0.00350105
Ti       2.75301035       7.52463712       5.57104634       0.00315281       0.00031512       0.00345162
Ti       0.21016048       2.65307855       5.57141857      -0.00036266       0.00193887       0.00223956
Ti       3.61168457       4.87222089       6.29488225      -0.00128546      -0.00095011       0.00237813
Ti       1.06790687       0.00063557       6.29513293       0.00039849       0.00054861      -0.00038623
Ti       0.21536727       7.06855310       6.96367095       0.00314562       0.00018581      -0.00044435
Ti       2.75995796       2.19988738       6.96102728       0.00029950      -0.00013761       0.00264534
Ti       1.10868005       4.43711843       7.65174307      -0.00284645      -0.00005567      -0.00229659
Ti       3.65189345       9.30347937       7.64887876      -0.00098950       0.00163486       0.00381751
Ti       0.22610025       1.80487022       8.39068303       0.00594141      -0.00038908      -0.00102153
Ti       2.77327083       6.67506810       8.39845109       0.00487395      -0.00098317      -0.00248121
Ti       1.03866006       8.82606229       9.03901612      -0.00084977      -0.00260242      -0.00460413
Ti       3.58815463       3.95701496       9.03403732       0.00068277      -0.00396343      -0.00376248
Ti       2.71263182       1.22988122       9.76515501       0.00444377      -0.00776735       0.00324819
Ti       0.17040166       6.09952910       9.78137270       0.00126502      -0.00442742      -0.00379703
Ti       3.82187062       8.29830508      10.54704575      -0.00273271      -0.00490610      -0.00024520
Ti       1.27817529       3.42989694      10.53920242       0.00106334      -0.00292271      -0.00126822
Ti      -0.00075482       0.92431169      11.16859876       0.00834180      -0.00042681      -0.00527530
Ti       2.55894979       5.79373209      11.17230985       0.00133893       0.00441176      -0.00646927
Ti       3.82657305       3.43473210      11.78144403       0.00173720       0.00182624      -0.00637759
Ti       1.28245699       8.30335003      11.78672296      -0.00203767      -0.00032859      -0.00471771
Ti       2.38470096       1.23978521      12.55616078       0.00235910       0.00375010      -0.00249601
Ti       4.93268543       6.12371878      12.57794774      -0.00210847      -0.00055820      -0.00162510
Ti       1.49836551       3.95866441      13.28432013      -0.00224529       0.00511181      -0.00242488
Ti       4.03773421       8.82227102      13.30200167      -0.00075085      -0.00406614      -0.00198829
Ti       4.87088643       1.79762721      13.93359991      -0.00480878      -0.00404693      -0.00626504
Ti       2.32854037       6.67309584      13.95699629       0.00219565       0.00162206      -0.00886065
Ti       1.43493498       9.28819691      14.64746681       0.00335850       0.00035901      -0.00730267
Ti       3.97622804       4.43664165      14.64900996      -0.00092595      -0.00705654      -0.00096978
Ti       4.88702068       7.07111608      15.41408274      -0.00481487      -0.00145815      -0.00510533
Ti       2.33373131       2.18759517      15.35240694      -0.00878881      -0.00130479      -0.00057950
Ti       1.50002031       4.87100773      16.00978656      -0.00012634       0.00475910      -0.00035053
Ti       4.03704068       9.73494507      16.04655987       0.00622983      -0.00499513       0.00433800
Ti       2.34392257       7.55896839      16.77179385      -0.00263345      -0.00105660       0.00092426
Ti       4.87371275       2.68290542      16.73336372      -0.00097307      -0.00388354       0.00618663
Ti       3.98331798       5.33986765      17.48754437      -0.00258781      -0.00306804       0.00033367
Ti       1.39014521       0.42447624      17.47324957       0.00840382      -0.00390280       0.00500208
V        4.91029188       7.97296101      18.11021398       0.01755624      -0.00492880      -0.00566271
Ti       2.34475336       3.09852466      18.12116891       0.00209438      -0.00345987      -0.00380879
Ti       1.36868709       5.73717219      18.76994897       0.00398671      -0.00264847      -0.00812958
Ti       3.96275468       0.81795029      18.74613256       0.00149459      -0.01285991      -0.00142569
Ti       2.30987405       8.32414890      19.50439410      -0.00599624      -0.00683590       0.00445039
Ti       4.85355251       3.47572152      19.53224149      -0.01369648      -0.00803168       0.00054426
Ti       1.53614118       1.34307325      20.18474972       0.00860794       0.00008634      -0.00395037
Ti       4.06165197       6.23600765      20.13934333       0.01332951       0.00648161      -0.00682664
Ti       4.94090010       8.96104432      20.84724078      -0.00391797       0.00795504       0.00979888
Ti       2.37856228       4.08634904      20.90967609      -0.00798037       0.01006170       0.00231647
Ti       3.82665612       1.88245176      21.68011322      -0.00637119       0.00896992       0.00786188
Ti       1.25948428       6.75454856      21.67715731      -0.00161850       0.01334145       0.01152936
