64
Lattice="5.088765 0.0 0.0 0.0 9.739025 0.0 0.0 0.0 22.303587" Properties=species:S:1:pos:R:3:forces:R:3 job_name=SegregationProfile-T2-V-V-35-d-0.63 top_level=SegregationProfile solute=V energy=-496.2405338 stress_kbar_3x3="_JSON [[-3.70044321, -5.15397283, -0.61926318], [-5.15397282, -18.99945664, -2.05613934], [-0.61926315, -2.05613932, -18.37499548]]" pbc="T T T"
Ti       2.52877030       9.30037512       0.00116414       0.00029240       0.00382023       0.00078406
Ti       5.07354253       4.42994838       0.00194478      -0.00039140       0.00492533       0.00165665
Ti       1.25081744       1.91138571       0.60860179      -0.00055813      -0.00034741      -0.00293783
Ti       3.79536280       6.78064161       0.60619000       0.00050487       0.00202565      -0.00237629
Ti       2.71650809       4.08683207       1.39533666      -0.00037541       0.00407457      -0.00493717
Ti       0.17200844       8.95929527       1.39686513      -0.00099237       0.00189685      -0.00724550
Ti       1.03202871       6.23535789       2.12278592      -0.00222706       0.00449198      -0.00207560
Ti       3.57516447       1.36438493       2.12483541      -0.00147970       0.00281225      -0.00635470
Ti       0.21896364       3.51697338       2.77399241      -0.00262300       0.00420373      -0.00165444
Ti       2.76409755       8.38903091       2.77312748      -0.00334326       0.00177357      -0.00090746
Ti       1.10627367       0.89470712       3.50109393       0.00239020      -0.00131971      -0.00140717
Ti       3.65072895       5.76651877       3.49449280       0.00195492       0.00053338       0.00107638
Ti       2.74323863       3.14168697       4.19168807       0.00023384       0.00427670       0.00330676
Ti       0.19603274       8.01324646       4.19440203       0.00086020      -0.00257074       0.00177956
Ti       3.59973922       0.47882595       4.86637882       0.00018867       0.00205584       0.00203720
Ti       1.05724294       5.34849295       4.85998027       0.00039790       0.00431805       0.00438580
Ti       2.76465211       7.55432936       5.56032542       0.00049401      -0.00229828       0.00185919
Ti       0.22592450       2.67996856       5.56393455       0.00050238       0.00534878       0.00438922
Ti       3.61402111       4.88745597       6.30635110      -0.00115601       0.00188768      -0.00072330
Ti       1.06358740       0.01597092       6.32275948      -0.00052224      -0.00121414       0.00140363
Ti       0.21472574       7.10197523       6.99693233       0.00047361      -0.00385391      -0.00092049
Ti       2.76655911       2.22243851       7.00296804       0.00014096       0.00384290       0.00212229
Ti       1.11125485       4.44791549       7.63615208       0.00386534      -0.00011797      -0.00502392
Ti       3.64559984       9.30452706       7.65566451       0.00103093       0.00107990       0.00036510
Ti       0.17183340       1.86081493       8.38310853      -0.00481743       0.00166593       0.00143974
Ti       2.70376397       6.73702401       8.37043519      -0.00187451       0.00020152      -0.00717423
Ti       1.01039950       8.93465363       9.10978834       0.00066652       0.00163302      -0.00319462
Ti       3.55654443       4.07214552       9.06571770       0.00245331      -0.00493957       0.00100349
Ti       2.84345000       1.29039999       9.71309092       0.00813487       0.00305164       0.00612341
Ti       0.27364666       6.17366354       9.70327529       0.00188067      -0.00052592      -0.00100812
Ti       3.69002591       8.30022886      10.58058663       0.00641470       0.00759989       0.00330482
Ti       1.22200832       3.39951678      10.55791993       0.00312600      -0.00259351       0.00059119
Ti       0.02012985       0.78059673      11.36031855      -0.00652548      -0.00053141       0.00288534
Ti       2.54233172       5.67671756      11.30267077       0.00567273      -0.00844276       0.00343378
Ti       3.77728223       3.20954206      11.70251456      -0.00243239      -0.00797093      -0.00128751
V        1.24077764       8.02641411      11.62938715      -0.00187065       0.00269233       0.00211550
Ti       2.54303830       0.83156924      12.43780337       0.00687873       0.00186474      -0.00288539
Ti       5.08349071       5.83015093      12.41189081      -0.00157733      -0.00370696       0.00135580
Ti       1.62579898       3.72976126      13.26486458       0.00713790      -0.00652143      -0.00445428
Ti       4.30893821       8.53488465      13.22629709       0.00234742      -0.00015266      -0.00442197
Ti       4.72922433       1.84752863      13.96203179      -0.00109269      -0.00340769      -0.00502178
Ti       2.16365556       6.77018535      13.89214331       0.00122944      -0.00209849       0.00573598
Ti       1.43509807       9.39777360      14.67321068      -0.00515134      -0.00060288       0.00124528
Ti       3.94752512       4.55502826      14.63369733      -0.00480160      -0.00391079       0.00170985
Ti       4.92100903       7.10854388      15.44205808       0.00250700       0.00332381       0.00394607
Ti       2.38476733       2.24479817      15.41565389       0.00375587       0.00039045      -0.00039373
Ti       1.45101364       4.86516067      15.93659349      -0.00073144      -0.00146753      -0.00038920
Ti       3.99103342       9.72979103      15.94603520       0.00061542      -0.00642864      -0.00132945
Ti       2.35116118       7.51507084      16.69758736      -0.00033604      -0.00317509      -0.00005049
Ti       4.88910037       2.65465506      16.69216664       0.00002019       0.00159668      -0.00240335
Ti       4.02852573       5.29073333      17.44579847      -0.00179695       0.00290252      -0.00428151
Ti       1.48107177       0.42606681      17.44751744      -0.00231699       0.00000122      -0.00512969
Ti       4.83702260       8.02162814      18.12769632      -0.00252802      -0.00245541      -0.00025047
Ti       2.29430733       3.14699795      18.12717070      -0.00142937       0.00362264      -0.00245735
Ti       1.42206751       5.77982315      18.77321955      -0.00370636       0.00124166      -0.00322918
Ti       3.96727801       0.91055878      18.77928877      -0.00030744      -0.00342255       0.00169299
Ti       2.31337992       8.40221593      19.55239374       0.00018634      -0.00329617       0.00373158
Ti       4.86200984       3.53383357      19.54971568       0.00202625       0.00195540       0.00252233
Ti       1.50398527       1.38016268      20.16524196      -0.00150000      -0.00313928       0.00900070
Ti       4.04987970       6.24897862      20.16264370      -0.00092999      -0.00082089       0.00386177
Ti       4.91183004       9.00618342      20.91345928      -0.00345345      -0.00305488       0.00184811
Ti       2.36946581       4.14045434      20.91103497      -0.00372900      -0.00176277       0.00371440
Ti       3.79249432       1.93346582      21.69007549      -0.00165896      -0.00329027       0.00139925
Ti       1.24712676       6.80065329      21.68998943      -0.00014762       0.00232982      -0.00190108
