64
Lattice="5.872 0.0 0.0 0.0 6.890708 0.0 0.0 0.0 27.394398" Properties=species:S:1:pos:R:3:forces:R:3 job_name=SegregationProfile-T1g-Al-Al-34-d-1.29 top_level=SegregationProfile solute=Al energy=-492.00177365 stress_kbar_3x3="_JSON [[-9.65089492, -0.00080504, 0.00050903], [-0.00080503, -14.50369208, 2.03968843], [0.00050904, 2.03968847, -15.41050721]]" pbc="T T T"
Ti       4.40533860       5.21466993      27.39364707       0.00129450       0.00463316       0.00313153
Ti       1.46664572       5.21463725      27.39364899      -0.00130685       0.00462156       0.00308810
Ti       5.87195128       3.18964185       1.29029071      -0.00004188       0.00125503       0.00204372
Ti       2.93603899       3.19051941       1.28875284      -0.00000116       0.00120603       0.00060801
Ti       0.00004824       6.63578418       1.90357874      -0.00008136      -0.00095868       0.00081060
Ti       2.93592065       6.63341159       1.90850593       0.00023759      -0.00253753      -0.00519427
Ti       4.39894132       1.76832524       3.19385289       0.00074516      -0.00155340      -0.00574723
Ti       1.47303704       1.76836448       3.19382868      -0.00073773      -0.00172407      -0.00561939
Ti       1.47000573       4.59899680       3.40885961      -0.00170754      -0.00222533      -0.00100554
Ti       4.40191872       4.59901168       3.40890395       0.00185106      -0.00237388      -0.00117641
Ti       5.87198916       6.72341521       4.71748481       0.00001068      -0.00010585       0.00237853
Ti       2.93596774       6.72561117       4.72507340      -0.00008560      -0.00264117      -0.00332580
Ti       2.93598894       2.87409506       5.33580589       0.00001006      -0.00439885       0.00151557
Ti       5.87198656       2.87498048       5.32025486      -0.00011321      -0.00523278      -0.00104218
Ti       4.40856180       5.00081799       6.48076507      -0.00568191      -0.00269188      -0.00262293
Ti       1.46342801       5.00082149       6.48075805       0.00567282      -0.00276912      -0.00268601
Ti       4.40576958       0.93025869       6.96191801      -0.00270748      -0.00360953       0.00012622
Ti       1.46611310       0.93025163       6.96192652       0.00287541      -0.00356591       0.00004637
Ti       2.93599279       3.08211019       8.16281750      -0.00006670      -0.00509084      -0.00373087
Ti       5.87198268       3.09234638       8.13906157       0.00004753      -0.00295258      -0.00246175
Ti       2.93596772       6.01326830       8.72287270       0.00012822      -0.00523482      -0.00060835
Ti       5.87199780       6.00785543       8.74785442      -0.00007495      -0.00105296       0.00206789
Ti       4.42079324       1.26344271       9.91501651       0.00083834      -0.00592203      -0.00143460
Ti       1.45126215       1.26345156       9.91497911      -0.00085259      -0.00587518      -0.00126905
Ti       4.43515059       4.10202825      10.39341250      -0.00347589      -0.00213819       0.00073527
Ti       1.43685112       4.10202975      10.39343371       0.00351301      -0.00222338       0.00067268
Ti       2.93601250       6.20725470      11.55907278       0.00010971      -0.00744197      -0.00035230
Ti       0.00006277       6.26625126      11.60575267      -0.00006577      -0.00861603       0.00031309
Ti       2.93602744       2.36087454      12.08199999      -0.00014024      -0.00144544       0.00493663
Ti       0.00004398       2.35462641      12.17899680       0.00002903       0.00464341      -0.00777520
Ti       1.48563637       4.47486961      13.45952365      -0.00263516      -0.00341533       0.00307360
Ti       4.38644768       4.47484753      13.45951884       0.00265573      -0.00324412       0.00310709
Ti       4.37514278       0.46433712      13.68557904       0.00109081      -0.00300638      -0.00046262
Ti       1.49699241       0.46432453      13.68561743      -0.00124933      -0.00277307      -0.00048809
Al       0.00004185       2.48327138      14.98875362       0.00008292       0.00141669       0.00396095
Ti       2.93606457       2.48302584      14.92425575      -0.00006514      -0.00949792       0.00525794
Ti       0.00005099       5.91137296      15.58691975       0.00002079      -0.00005782      -0.00228734
Ti       2.93604547       5.91011512      15.60633945       0.00010467       0.00552506      -0.00443729
Ti       4.43678418       3.88170730      16.89509613      -0.00383512       0.00228099      -0.00392343
Ti       1.43534640       3.88172592      16.89511514       0.00372964       0.00214551      -0.00408018
Ti       4.40710270       1.09613569      17.11212068       0.00137833      -0.00013974       0.00217389
Ti       1.46498418       1.09613790      17.11212629      -0.00145801      -0.00014414       0.00214803
Ti       0.00001620       5.84645440      18.40809191       0.00012687       0.00362644       0.00125931
Ti       2.93603843       5.84711179      18.41132780      -0.00002780       0.00126050       0.00190597
Ti       2.93604769       2.83468344      19.03081155       0.00004808       0.00334265       0.00126350
Ti       0.00006073       2.84677863      19.07205909      -0.00014600      -0.00005650       0.00617884
Ti       4.39933126       0.67535519      20.17381101       0.00274702       0.00209365       0.00003766
Ti       1.47271825       0.67535406      20.17381975      -0.00291011       0.00198937       0.00006457
Ti       1.46770865       4.76685245      20.66748086      -0.00076779      -0.00009711      -0.00161515
Ti       4.40436420       4.76687004      20.66745021       0.00072715      -0.00023915      -0.00148115
Ti       2.93601002       2.58639917      21.83345283       0.00004655       0.00505306       0.00053232
Ti       0.00001297       2.58798067      21.85621475      -0.00002519       0.00216618       0.00032187
Ti       2.93599531       6.55818552      22.44095202       0.00000868       0.00322281      -0.00224206
Ti      -0.00000195       6.55503307      22.44128201       0.00008368       0.00694042       0.00091605
Ti       4.40257160       4.38592246      23.62951486       0.00054096       0.00623590       0.00143929
Ti       1.46940626       4.38589936      23.62955657      -0.00054691       0.00638148       0.00128122
Ti       4.40128827       1.57083232      24.09971140       0.00190751       0.00433783      -0.00119786
Ti       1.47070991       1.57085383      24.09972403      -0.00190900       0.00411810      -0.00122196
Ti       2.93598730       6.32676005      25.26139298      -0.00002149       0.00795619       0.00099121
Ti       0.00002066       6.32805072      25.26007923      -0.00001632       0.00653999       0.00194644
Ti       5.87195633       3.28149862      25.86985102       0.00009164       0.00260992       0.00197666
Ti       2.93598847       3.28291632      25.87038855       0.00004726       0.00327699      -0.00190025
Ti       1.46798009       1.15250559      27.18100770      -0.00000181       0.00412484       0.00450277
Ti       4.40399973       1.15252713      27.18098909      -0.00004539       0.00404892       0.00457588
