64
Lattice="5.871999 0.0 0.0 0.0 6.890708 0.0 0.0 0.0 27.401158" Properties=species:S:1:pos:R:3:forces:R:3 job_name=SegregationProfile-T1m-Al-Al-35-d-0.00 top_level=SegregationProfile solute=Al energy=-491.90839302 stress_kbar_3x3="_JSON [[-10.04370556, -0.00121654, -0.0008472], [-0.00121654, -9.50567896, 0.01325709], [-0.00084718, 0.01325708, -20.8970686]]" pbc="T T T"
Ti       2.93601837       0.09783836       0.00066071       0.00008581       0.00677528      -0.00063134
Ti       2.93600340       2.93610848       0.00044622       0.00002441      -0.01227444      -0.00026582
Ti       0.00003480       0.09951238       0.00067421      -0.00007201       0.00683700      -0.00007043
Ti       0.00002239       2.93632432       0.00041562      -0.00001046      -0.01243018      -0.00032781
Ti       4.40331569       5.02500540       1.41669560      -0.00033649      -0.00984873       0.01027131
Ti       1.46870299       5.02499632       1.41667652       0.00039705      -0.00990152       0.01033721
Ti       4.40433626       1.31406691       2.03698179      -0.00004386       0.00119177      -0.00258122
Ti       1.46768277       1.31407529       2.03697705       0.00012327       0.00114416      -0.00244944
Ti       2.93601325       3.40459853       3.21747589      -0.00008333      -0.00351849      -0.00367274
Ti       0.00001684       3.40556798       3.21928669       0.00004871      -0.00304990      -0.00299020
Ti       2.93599899       6.22249679       3.63067425      -0.00003816      -0.00489293      -0.00352176
Ti       0.00000688       6.22333508       3.63025562       0.00007671      -0.00589219      -0.00411176
Ti       1.46878416       1.48100163       4.85417539       0.00013911      -0.00098823      -0.00523087
Ti       4.40322021       1.48099628       4.85415725      -0.00010143      -0.00097646      -0.00517861
Ti       1.46907809       4.43473054       5.45759204      -0.00057662      -0.00180416      -0.00801957
Ti       4.40294674       4.43475534       5.45754284       0.00061387      -0.00177597      -0.00802847
Ti       2.93603107       6.58015704       6.62371535       0.00001258       0.00233070      -0.00334480
Ti       5.87199520       6.58327009       6.62064855      -0.00002519       0.00137837      -0.00247335
Ti       2.93599695       2.51119741       7.11674291       0.00003210      -0.00197910      -0.00229181
Ti       5.87199421       2.51459608       7.12462146       0.00004021      -0.00110355      -0.00105504
Ti       4.41268948       4.65814386       8.28527332       0.00126022       0.00196304       0.00726586
Ti       1.45932351       4.65812124       8.28535949      -0.00132120       0.00201062       0.00745609
Ti       4.40515834       0.73534333       8.88881250      -0.00007064      -0.00039099       0.00754116
Ti       1.46684498       0.73537504       8.88863316      -0.00007412      -0.00029019       0.00731800
Ti       5.87198822       2.87679979      10.14003770      -0.00010341       0.00693649       0.00972191
Ti       2.93604254       2.87991999      10.12337221       0.00013115       0.00452395       0.00659723
Ti       5.87180167       5.70922003      10.51611972      -0.00026478       0.00192667       0.00747063
Ti       2.93614243       5.69875685      10.47058721       0.00023762       0.00763475       0.00679772
Ti       1.49577282       0.89849137      11.71384927      -0.00078695      -0.00191460       0.00161452
Ti       4.37648416       0.89866453      11.71417897       0.00109876      -0.00158431       0.00199542
Ti       1.42910608       4.13628328      12.31247882      -0.00478377       0.01361594      -0.00970870
Ti       4.44271635       4.13611082      12.31254453       0.00453768       0.01341059      -0.00935464
Ti       2.93533357       2.22336802      13.70034770      -0.00058739      -0.01327132      -0.00104104
Ti       0.00115032       2.09683757      13.70033076       0.00092987      -0.00449215      -0.00118063
Ti       2.93586273       6.26127442      13.70035195      -0.00015752       0.00904454      -0.00027618
Al       5.87188612       6.19993425      13.70022436      -0.00052204       0.00625268      -0.00138045
Ti       4.44282051       4.13608983      15.08797507       0.00361183       0.01294605       0.00961067
Ti       1.42899696       4.13623650      15.08806765      -0.00393063       0.01326309       0.01011963
Ti       4.37639943       0.89873677      15.68671600       0.00109061      -0.00179335      -0.00302604
Ti       1.49585362       0.89857586      15.68706418      -0.00082533      -0.00211415      -0.00253485
Ti       2.93616189       5.69860797      16.93031618       0.00025700       0.00796717      -0.00788769
Ti       5.87176856       5.70923404      16.88455855      -0.00020110       0.00182227      -0.00771715
Ti       2.93603866       2.87990292      17.27778214       0.00003437       0.00493983      -0.00792253
Ti       5.87195758       2.87685597      17.26107580       0.00015711       0.00713236      -0.01060778
Ti       4.40515710       0.73538500      18.51230683       0.00003716      -0.00116088      -0.00953577
Ti       1.46687184       0.73541354      18.51251988      -0.00019099      -0.00106951      -0.00927258
Ti       4.41274382       4.65826576      19.11583731       0.00095293       0.00295310      -0.00887874
Ti       1.45924779       4.65823931      19.11571711      -0.00093181       0.00292506      -0.00885481
Ti       0.00001483       2.51472994      20.27633975       0.00006722      -0.00164402       0.00101352
Ti       2.93605310       2.51129881      20.28428004      -0.00013251      -0.00217770       0.00206513
Ti       5.87197424       6.58349048      20.78043002       0.00008846       0.00111711       0.00340049
Ti       2.93604206       6.58037888      20.77733415      -0.00010028       0.00180783       0.00423645
Ti       1.46909889       4.43476222      21.94320757      -0.00052003      -0.00188965       0.01098610
Ti       4.40297433       4.43477406      21.94323383       0.00057085      -0.00184886       0.01123408
Ti       1.46880144       1.48125038      22.54690305       0.00008583      -0.00096262       0.00723073
Ti       4.40324152       1.48124274      22.54695058      -0.00006837      -0.00105948       0.00729651
Ti       2.93600647       6.22262153      23.77046534       0.00005249      -0.00621574       0.00494458
Ti       0.00003438       6.22343422      23.77085310      -0.00000414      -0.00664793       0.00524893
Ti       2.93604288       3.40464701      24.18379373      -0.00004252      -0.00261781       0.00514225
Ti       0.00003360       3.40563355      24.18197836       0.00007640      -0.00250056       0.00460362
Ti       4.40439463       1.31388565      25.36490859      -0.00003815       0.00114583       0.00282992
Ti       1.46766381       1.31389392      25.36487688       0.00006652       0.00110202       0.00288230
Ti       4.40336374       5.02536207      25.98517723      -0.00027960      -0.01000489      -0.01090350
Ti       1.46869428       5.02536906      25.98515344       0.00028692      -0.01001171      -0.01090385
