100
Lattice="4.4265 -2.555641 0.0 3.767997 6.526363 -0.031456 0.0 0.0 45.781652" Properties=species:S:1:pos:R:3:forces:R:3 job_name=SegregationProfile-CSL13-V-V-55-d-2.65 top_level=SegregationProfile solute=V energy=-775.53508125 stress_kbar_3x3="_JSON [[-38.15734308, -2.27220017, 1.04125427], [-2.27220016, -39.53553067, 1.59995596], [1.04125432, 1.599956, -18.64870412]]" pbc="T T T"
Ti       2.46257385      -0.91805259       0.01166772      -0.00293993       0.00017891       0.00596318
Ti       5.75967657       1.52943497      -0.00401579       0.00075269      -0.00364312       0.00629863
Ti       4.97522002      -0.82459144       1.37795369      -0.00093156      -0.00242443       0.00042737
Ti       4.58460477       3.75212064       1.36234450      -0.00257582      -0.00224827       0.00005846
Ti       7.09465093       3.84180198       2.63525944      -0.00562438      -0.00313531      -0.00185249
Ti       3.79810638       1.39433930       2.65090051      -0.00000960      -0.00787234      -0.00218676
Ti       1.65398211      -0.46169396       2.86772198       0.00098132      -0.00149199       0.00259134
Ti       2.13295420       3.61273091       2.85189252      -0.00279399      -0.00096508       0.00253348
Ti       4.70801739       3.64699214       4.16072781       0.00385071      -0.00798174      -0.00060457
Ti       4.82248301      -0.77009712       4.17663459      -0.00748875      -0.00095182      -0.00044906
Ti       3.44077469       5.86585330       5.27315880      -0.00118508      -0.00709246      -0.00596147
Ti       2.95181801       1.79759317       5.28875683      -0.00586892      -0.00520270      -0.00614662
Ti       2.40738874      -0.96621818       5.74695378      -0.00269888      -0.00222604      -0.00133511
Ti       5.74625792       1.45705103       5.73110720       0.00033698      -0.00367819      -0.00147947
Ti       4.29802245       3.75181180       6.95973596      -0.01084082      -0.00328247      -0.00100525
Ti       5.11996492      -1.07402380       6.97559291       0.00300017      -0.01102252      -0.00262472
Ti       6.93485751       3.59924332       7.87722046      -0.00383334      -0.00648188      -0.01377811
Ti       3.67004961       1.13358224       7.89200869      -0.00465240      -0.00654657      -0.01179905
Ti       6.38091713       0.88912628       8.61051770      -0.00285965      -0.00251556      -0.00404701
Ti       1.60010629      -0.70129785       8.62721314      -0.00095711      -0.00441037      -0.00311883
Ti       4.78968847       3.18523730       9.69701202      -0.00262029      -0.00215380      -0.00147625
Ti       4.38318454      -0.93140350       9.71225524      -0.00283528      -0.00171741      -0.00122397
Ti       3.17924338       5.40979521      10.50077138      -0.00106813       0.00510938      -0.00704656
Ti       2.68974758       1.34029638      10.51493385       0.00481765       0.00130781      -0.00700038
Ti       5.89733962       5.19522579      11.45073789       0.00063055       0.00387613      -0.00077661
Ti       5.57218038       1.03410462      11.46549591      -0.00188385       0.00286976      -0.00222301
Ti       0.58798678       0.91386536      12.38560609      -0.00182766       0.00353411       0.00044229
Ti       3.85573975       3.37455505      12.37235715       0.00110240       0.00357023       0.00082752
Ti       3.29998471       0.65253391      13.20115771       0.00325483       0.00630934      -0.00382411
Ti       6.70099199       3.03824427      13.18714922       0.00115520       0.00742897      -0.00528817
Ti       5.08782519       5.36390366      14.30342471      -0.00143408       0.00280584      -0.00363768
Ti       6.11091007       0.41981083      14.32249024       0.00020410       0.00407963      -0.00369011
Ti       4.53659265       2.64473505      14.98536198      -0.00072694       0.00302641      -0.00049478
Ti       4.03050918      -1.42304688      14.99320223       0.00328080       0.00497943       0.00366717
Ti       7.15137680       2.52523992      15.93436863       0.00548563      -0.00184899      -0.00352736
Ti       2.62668904       0.78938353      15.94895806      -0.00398797       0.00654301      -0.00347138
Ti       5.74630905       4.81801785      17.18953922      -0.00305803      -0.00141816      -0.00705084
Ti       5.29591388       0.72032534      17.20390544       0.00403832      -0.00038929      -0.00850265
Ti       3.61265797       2.96073918      17.58396469       0.00430767      -0.00066044       0.00026039
Ti       0.33124785       0.50770263      17.59357308       0.00737640       0.00077007       0.00173571
Ti       2.86923756       0.55095195      18.75274982       0.00633052      -0.00457727       0.00093369
Ti       6.79575308       2.62504729      18.73006397      -0.00864116      -0.00051499       0.00021873
Ti       4.92328287       5.23879062      20.05435984       0.00394575      -0.00521936      -0.00117007
Ti       1.63366580       2.78055878      20.07612181       0.00001675      -0.00445275      -0.00307084
Ti       4.39161183       2.44984522      20.22969378      -0.00022144      -0.00082213      -0.00170537
Ti       3.91500838      -1.63137331      20.22784000       0.00020930       0.00248907      -0.00027133
Ti       6.88851590       2.53487924      21.51440458       0.00187367      -0.00447653      -0.01243032
Ti       2.75761479       0.58319545      21.53803327       0.00433707       0.00030675      -0.00848741
Ti       3.57944969       2.88934994      22.95737088      -0.00999621       0.00423067      -0.00333389
Ti       0.28528286       0.44369086      22.88669969       0.01045612       0.00196226       0.00359623
Ti       5.72521855       4.75183117      22.90165905       0.00081168      -0.00576869      -0.00078484
Ti       5.23908429       0.67233429      22.92497359       0.00648779      -0.00538821       0.00258742
Ti       2.75462774       0.58320491      24.31984612      -0.00080977       0.00353528       0.00201316
Ti       6.86396528       2.52875276      24.28829663       0.00641249      -0.00183438       0.00499760
Ti       3.97349764      -1.67556938      25.52115081       0.00040050       0.00451196       0.00234889
V        4.37156064       2.37927992      25.52525395       0.00580311      -0.00483592      -0.00364243
Ti       1.65079492       2.78440499      25.74258080      -0.00519069      -0.00015928       0.00411682
Ti       4.92224853       5.07583570      25.74899653      -0.00089697       0.00878986       0.00200661
Ti       2.97749997       0.46174498      27.06482736       0.00118618       0.00603137       0.00923789
Ti       6.68506052       2.67033416      27.05927120      -0.00574575       0.00836471       0.00053008
Ti       0.38297320       0.51330934      28.08723181      -0.00097078       0.00734839       0.00005235
Ti       3.65655747       3.00278606      28.03690188      -0.00944617       0.00508366       0.00351543
Ti       5.36482381       0.69318923      28.62272728       0.00141916       0.00497573       0.00664099
Ti       5.74953598       4.84922065      28.66595098       0.00307742       0.00603890       0.00357322
Ti       7.28101156       2.50833995      29.81471423       0.00339870       0.00092534      -0.00176826
Ti       2.56808699       0.89311132      29.82463042       0.00653547       0.01810631       0.00242732
Ti       4.60947577       2.72051376      30.64999805      -0.00203478       0.00681012      -0.00816960
Ti       4.10537722      -1.31714843      30.67803529       0.00301912       0.01376194       0.00117095
Ti       6.14159000       0.50352440      31.49525863       0.00945939       0.00926313       0.00105957
Ti       5.16329253       5.41493636      31.48101435       0.00498021       0.00423984       0.00134309
Ti       3.39946571       0.71833306      32.53323571       0.00325488       0.00996184       0.00042343
Ti       6.70826500       3.15509536      32.51352110       0.01071154       0.00250145       0.00784532
Ti       3.94233518       3.46855660      33.29902980       0.00329574       0.00104924       0.00219841
Ti       0.62618300       1.02261831      33.31968670      -0.00086548       0.00397415      -0.00175715
Ti       2.18314047      -1.23816864      34.35356704       0.00341005      -0.00146498       0.00765230
Ti       5.62750831       1.12560602      34.33848623       0.00534728       0.00509278       0.00458552
Ti       3.25065323       5.50887606      35.16057119      -0.00273818      -0.00225910      -0.00060746
Ti       2.73923414       1.45563055      35.17512958       0.00558457       0.00515092       0.00069788
Ti       4.78016062       3.30192649      36.00937989       0.00132787      -0.00023210      -0.00091780
Ti       4.49043717      -0.88009560      36.02656182      -0.00237329      -0.00143688      -0.00043186
Ti       6.42905785       0.93812242      37.18998569       0.00149370       0.00151424       0.00575475
Ti       1.61509204      -0.63375077      37.20484551      -0.00139765      -0.00225167       0.00786561
Ti       6.98262396       3.68261070      37.75775204      -0.00054254      -0.00829579      -0.00322169
Ti       3.71325272       1.21538799      37.77246464      -0.00126963       0.00089484      -0.00123610
Ti       4.39651554       3.74595421      38.77867554      -0.00138901      -0.00320974       0.00610226
Ti       5.06376198      -0.98968979      38.79549704      -0.00163315      -0.00462651       0.00568776
Ti       5.73518542       1.48200403      40.06943993       0.00323233      -0.00399246       0.00383815
Ti       2.43289702      -0.96189451      40.08553621      -0.00347611      -0.00046432       0.00377808
Ti       3.44917069       5.89272791      40.36652500      -0.00081288      -0.00827699       0.00015048
Ti       2.96956550       1.81892148      40.38286600      -0.00465368      -0.00186584      -0.00176321
Ti       4.66250258       3.67854013      41.58360723      -0.00496378      -0.00260806       0.00386550
Ti       4.87193069      -0.79354855      41.59960443      -0.00118073      -0.00213706       0.00515924
Ti       2.13073299       3.61235485      42.92919026      -0.00392445      -0.00260449       0.00377835
Ti       1.65361425      -0.46364510      42.94465525       0.00119573      -0.00434647       0.00479102
Ti       7.09635964       3.83973528      43.03120443      -0.00312924      -0.00308601       0.00446344
Ti       3.79446656       1.39528149      43.04711487      -0.00088348      -0.00610223       0.00294830
Ti       4.60553891       3.73722898      44.36653406      -0.00162864      -0.00330857       0.00342365
Ti       4.95160923      -0.81347521      44.38221680      -0.00233949      -0.00250940       0.00437267
Ti       3.46880082       5.94734245      45.72873212      -0.00177722      -0.00403431       0.00214428
Ti       3.00781267       1.86299026      45.74467561      -0.00395467      -0.00478033       0.00169002
