64
Lattice="5.872 0.0 0.0 0.0 6.890708 0.0 0.0 0.0 27.394398" Properties=species:S:1:pos:R:3:forces:R:3 job_name=SegregationProfile-T1g-Al-Al-47-d-6.48 top_level=SegregationProfile solute=Al energy=-492.02658471 stress_kbar_3x3="_JSON [[-11.83738102, -6.699e-05, 0.00044977], [-6.702e-05, -10.56477033, 0.04017539], [0.00044979, 0.04017539, -19.88555644]]" pbc="T T T"
Ti       4.40398271       5.21329118      27.38785650      -0.00002056      -0.00018463      -0.00656684
Ti       1.46804874       5.22079406      27.38606757      -0.00012772       0.00256098      -0.00577926
Ti       0.00233824       3.19190353       1.27640762       0.00026090      -0.00404989      -0.00043881
Ti       2.93368678       3.19186325       1.27640846      -0.00032901      -0.00394505      -0.00071889
Ti       5.86949171       6.64168082       1.89256079       0.00095158       0.00248685      -0.00021502
Ti       2.93851441       6.64170978       1.89255673      -0.00095912       0.00245708      -0.00007336
Ti       4.40400512       1.76978950       3.18633839      -0.00001125       0.00591965       0.00541832
Ti       1.46800510       1.77110595       3.18655749      -0.00006182       0.00611234       0.00505776
Ti       1.46797353       4.59913397       3.39727235       0.00000904       0.00166136       0.00221004
Ti       4.40396660       4.59959098       3.39756377       0.00002638       0.00018803       0.00227452
Ti       0.00107335       6.72644148       4.71213613      -0.00007538      -0.00024772       0.00227661
Ti       2.93484298       6.72645573       4.71215527       0.00020878      -0.00037359       0.00221597
Ti       2.93540183       2.87921475       5.32339790       0.00019052       0.00502064      -0.00237859
Ti       0.00056255       2.87922564       5.32336280      -0.00013847       0.00500765      -0.00201035
Ti       4.40396933       5.00626367       6.48390790       0.00003767       0.00404910       0.00339377
Ti       1.46797803       5.00781451       6.48331085      -0.00002734       0.00367416       0.00304086
Ti       4.40396077       0.93407083       6.95865058       0.00015583      -0.00255878       0.00546658
Ti       1.46794106       0.93455107       6.95998174       0.00008210      -0.00246151       0.00420231
Ti       2.93569735       3.09310983       8.14468965       0.00013900       0.00626217       0.00514148
Ti       0.00025642       3.09310006       8.14470942      -0.00015409       0.00629487       0.00499690
Ti       2.93554329       6.02666467       8.74710512      -0.00012381       0.00069425      -0.00244934
Ti       0.00042233       6.02667279       8.74711096       0.00015162       0.00070527      -0.00219706
Ti       4.40399939       1.29511674       9.92930056       0.00012249       0.00614499      -0.00480749
Ti       1.46802978       1.29582234       9.92923453      -0.00024896       0.00507835      -0.00349313
Ti       4.40398440       4.11428424      10.40639364       0.00018456       0.00427906      -0.00335499
Ti       1.46802176       4.11554770      10.40928280      -0.00026040       0.00606695      -0.00247729
Ti       2.93949396       6.24614208      11.56898463      -0.00084134       0.00484601       0.00509039
Ti       5.86855605       6.24613405      11.56904466       0.00090065       0.00485860       0.00456488
Ti       2.93289312       2.39892093      12.18023115      -0.00045994       0.00080337       0.00189076
Ti       0.00314782       2.39891924      12.18027972       0.00049722       0.00088811       0.00127031
Ti       1.46801565       4.52749409      13.49402634       0.00004183       0.00583842      -0.00742699
Ti       4.40402632       4.52676015      13.48360801      -0.00004920       0.00269965      -0.00462724
Ti       4.40404091       0.47310306      13.71592592      -0.00011841       0.00063574       0.00001063
Ti       1.46805812       0.46385316      13.71688340      -0.00000653       0.00180673      -0.00002046
Ti       0.01509812       2.49564609      14.99364930      -0.00062977       0.00731209      -0.00077119
Ti       2.92094728       2.49565617      14.99372323       0.00068379       0.00721998      -0.00131045
Ti       5.86003346       5.93530928      15.61864796      -0.00360247      -0.00672871       0.00578769
Ti       2.94803514       5.93532821      15.61870536       0.00360316      -0.00682206       0.00560832
Ti       4.40406763       3.91035583      16.91560029      -0.00016890       0.00048529       0.00957097
Ti       1.46801715       3.90932656      16.93719722       0.00004526      -0.00328541       0.00938542
Ti       4.40401236       1.08325661      17.06264471       0.00005256      -0.00567564      -0.00002721
Ti       1.46798646       1.08188024      17.13059939       0.00009279      -0.00381801       0.00633405
Ti       5.85300797       5.82701135      18.45177683      -0.00076101       0.00260363      -0.00289813
Ti       2.95504217       5.82698984      18.45181515       0.00063521       0.00269525      -0.00297149
Ti       2.91229651       2.77555270      19.02165032      -0.00203575      -0.01254534      -0.00229650
Ti       0.02378428       2.77556738      19.02161979       0.00194716      -0.01267557      -0.00202487
Ti       4.40402389       0.61333863      20.17082030       0.00013854      -0.00207817      -0.00371184
Al       1.46803128       0.66147860      20.15359003      -0.00005046      -0.00554901      -0.00628504
Ti       1.46800051       4.76446939      20.65974069       0.00016735       0.00745313      -0.00515671
Ti       4.40403497       4.65967882      20.66363394      -0.00000686      -0.00477221      -0.00727797
Ti       2.90091166       2.53645444      21.82950889      -0.00108395      -0.01070901      -0.00076196
Ti       0.03515584       2.53642110      21.82950081       0.00097736      -0.01051732      -0.00078304
Ti       2.91914700       6.53318531      22.40510317       0.00030088       0.00670541      -0.00859094
Ti       0.01696170       6.53320778      22.40519155      -0.00041057       0.00662112      -0.00907868
Ti       4.40403832       4.37894650      23.61427407      -0.00012989      -0.01163114       0.00361244
Ti       1.46800311       4.39379820      23.58253886       0.00016847      -0.00980114       0.00155631
Ti       4.40404142       1.54810634      24.08361567      -0.00009650      -0.00113488      -0.00030329
Ti       1.46799419       1.57567408      24.13039599       0.00012475      -0.00372100       0.00365429
Ti       2.93993361       6.31656431      25.23614611      -0.00072065       0.00166071       0.00710890
Ti       5.86810441       6.31653958      25.23617665       0.00067080       0.00174025       0.00732295
Ti       0.00635762       3.29116689      25.85192618      -0.00073622      -0.00507355      -0.00066532
Ti       2.92965034       3.29115171      25.85186716       0.00085889      -0.00488980      -0.00033515
Ti       1.46801051       1.16129592      27.16821098      -0.00001442      -0.00392366      -0.00740267
Ti       4.40398750       1.15594570      27.15988728       0.00003363      -0.00236440      -0.00677592
