100
Lattice="4.4265 -2.555641 0.0 3.767997 6.526363 -0.031456 0.0 0.0 45.781652" Properties=species:S:1:pos:R:3:forces:R:3 job_name=SegregationProfile-CSL13-Al-Al-54-d-2.65 top_level=SegregationProfile solute=Al energy=-771.57988863 stress_kbar_3x3="_JSON [[-35.49638988, -2.09927949, 0.69524228], [-2.09927952, -38.61317492, 2.53069182], [0.69524232, 2.53069182, -17.33791981]]" pbc="T T T"
Ti       2.43364347      -0.95672121       0.06746448      -0.00651409      -0.00397914       0.00445210
Ti       5.73095929       1.49135929       0.05256383      -0.00955306       0.00165900       0.00223404
Ti       4.97084044      -0.87505797       1.39595612      -0.00518351      -0.00171003       0.00991342
Ti       4.53629117       3.72719513       1.38047985       0.00017065      -0.00386338      -0.00157178
Ti       7.06573599       3.79988582       2.60486435      -0.00283550       0.00059647       0.00187687
Ti       3.77283980       1.34994037       2.61966524      -0.00081338      -0.00596173      -0.00220660
Ti       1.63648074      -0.50161257       2.91118410      -0.00047365      -0.00317069       0.00267797
Ti       2.10264052       3.57876842       2.89418659      -0.00617013      -0.00414876       0.00337576
Ti       4.72168567       3.58272469       4.17821689       0.00315548      -0.00877095       0.00015402
Ti       4.75976042      -0.79016077       4.19508358      -0.01014154      -0.00410472       0.00050638
Ti       3.40767201       5.80113896       5.22523566      -0.00756457      -0.00159428      -0.00319974
Ti       2.91461675       1.73598200       5.24142386      -0.00576442      -0.00785245      -0.00152903
Ti       2.36449276      -1.00879988       5.78384693      -0.00168501      -0.00831580       0.00282070
Ti       5.73269241       1.39836859       5.76851406      -0.00557353      -0.00626832       0.00381656
Ti       4.22170230       3.70897057       6.95805017      -0.00562847      -0.00732349       0.00420706
Ti       5.12542669      -1.16378192       6.97391257      -0.00290906      -0.00757643       0.00002340
Ti       6.88748414       3.51631940       7.82841576      -0.00733657      -0.00736160      -0.00524340
Ti       3.62589972       1.04637820       7.84345683      -0.00476823      -0.00664728      -0.00304936
Ti       6.33431675       0.82205747       8.63056302      -0.00715344      -0.00801320       0.00080553
Ti       1.57003592      -0.77890081       8.64750535      -0.00418191      -0.00804367       0.00075630
Ti       4.76661375       3.09785586       9.67704536      -0.00427321      -0.00905852      -0.00273939
Ti       4.32643466      -0.99846997       9.69277069      -0.00382244      -0.00523385      -0.00085581
Ti       3.12762949       5.33558507      10.46710450      -0.00480410      -0.00921830       0.00057866
Ti       2.65628136       1.25624675      10.48353827      -0.00254005      -0.00631009      -0.00239227
Ti       5.86065471       5.11813099      11.46423664      -0.00507250      -0.00646022      -0.00041177
Ti       5.52977484       0.95736560      11.47907578      -0.00241072      -0.00665393       0.00364045
Ti       0.55046056       0.82365034      12.35011363      -0.00219350      -0.00420365      -0.00872959
Ti       3.80963729       3.29524048      12.33518977      -0.00763745      -0.00736728      -0.00219390
Ti       3.23917104       0.58507416      13.18479746      -0.00305420       0.00498298      -0.00373411
Ti       6.68413002       2.94835344      13.16756032      -0.00180488      -0.01561732      -0.00727613
Ti       5.04553955       5.28941109      14.32547687      -0.00628725      -0.00618273      -0.00091791
Ti       6.08875180       0.33496528      14.33633323       0.00529807      -0.00275223       0.00018237
Ti       4.49150305       2.54707091      14.93184694      -0.00822576      -0.00746796      -0.00307930
Ti       3.98964284      -1.51459713      14.94816882       0.00250192       0.00011572      -0.00075082
Ti       7.08408216       2.46702271      15.92707034      -0.00487876      -0.00856190       0.00450762
Ti       2.62569603       0.68745751      15.94589864       0.00504161       0.00615476       0.00234681
Ti       5.73981943       4.72135216      17.22996171       0.00063574      -0.00018712       0.00703497
Ti       5.25959256       0.64563592      17.24025273       0.00438848       0.00276332      -0.00100498
Ti       3.58101402       2.87126487      17.53029644      -0.00098576      -0.00082566      -0.01237175
Ti       0.30377549       0.40150758      17.54165311      -0.00197740      -0.00315481       0.00222836
Ti       2.81002629       0.47453425      18.75031029      -0.00299918       0.00205545      -0.00584936
Ti       6.80380484       2.50886043      18.73774712       0.00515068       0.00379773      -0.00166330
Ti       4.88519767       5.16029909      20.13094841       0.00227593      -0.00059261      -0.00185334
Ti       1.62425581       2.67291879      20.14057797      -0.00122655       0.00039077       0.00179141
Ti       4.36921047       2.35066326      20.14603318       0.00352892       0.01168719      -0.00149478
Ti       3.86248587      -1.72525861      20.16629793       0.00283421      -0.00349430      -0.00274366
Ti       6.80288964       2.44631894      21.55130244      -0.00060244       0.00361914       0.00284420
Ti       2.80631897       0.44830479      21.56882354       0.00933725       0.00291961       0.00641833
Ti       3.61173081       2.82477824      22.76807215       0.00259732       0.00335950       0.00571276
Ti       0.33626119       0.24332949      22.71110329      -0.00342194       0.01018193      -0.00831463
Ti       5.80332040       4.67765998      22.98245377       0.00283812      -0.00315993       0.00061109
Ti       5.22226573       0.49854138      23.12529631       0.00614813       0.00598843       0.00320126
Ti       2.54225947       0.64641293      24.40476852       0.00558307       0.01005107       0.00093140
Ti       7.01584265       2.36055136      24.35876631       0.00774630      -0.00319643      -0.00733045
Al       4.03173269      -1.59366129      25.22440529       0.00310584       0.00769759       0.00464083
Ti       4.43262652       2.47698409      25.33333854      -0.00625625       0.00742077      -0.01344799
Ti       5.98425382       0.30801764      26.02684985       0.01116430      -0.00006913      -0.00048694
Ti       5.05395929       5.13890009      25.91863444       0.00489430       0.00899523       0.00083732
Ti       3.25975001       0.36264191      27.13113980       0.00146346       0.00524454      -0.00314021
Ti       6.60750435       2.95288849      27.08521245       0.00942062       0.00797745      -0.00038783
Ti       0.58005584       0.76136301      27.82247845       0.00607109       0.00826578      -0.00255234
Ti       3.75379963       3.19554851      27.88521493       0.00098972       0.00781673      -0.00039521
Ti       5.44804824       0.86216543      28.79800243       0.00445878       0.00396075       0.00253064
Ti       5.73456480       5.07402294      28.84601448       0.00770687       0.00952375       0.00104993
Ti       3.04524210       5.22331369      29.76612438       0.00308220       0.00564499      -0.00316703
Ti       2.58598180       1.21293664      29.77194018       0.00748560       0.01161374      -0.00169349
Ti       4.66813050       3.02020456      30.55761078       0.00415950       0.00399448       0.00242509
Ti       4.27428188      -1.12102558      30.52041488       0.00718962       0.00795412      -0.00012842
Ti       6.22872024       0.72374580      31.64159794       0.00348193       0.00731653       0.00389401
Ti       5.22106850       5.65965741      31.63553392       0.00544283       0.00749632       0.00347943
Ti       3.54357103       0.93408976      32.39890659       0.00139440       0.00840658      -0.00692085
Ti       6.79708011       3.44507254      32.36778789       0.00139692       0.00706210      -0.00378457
Ti       4.14827219       3.59194251      33.27676595       0.00688377       0.00110393      -0.00104550
Ti       5.01738623      -1.24892897      33.29060751       0.00116957       0.00887774      -0.00154510
Ti       2.28103726      -1.11196607      34.50535927       0.00387329       0.00076018       0.00427389
Ti       5.63081793       1.30412908      34.48086620       0.00034688       0.00646115       0.00312802
Ti       3.32279520       5.70478164      34.97364634      -0.00044180       0.00379668       0.00257643
Ti       2.83176443       1.64629788      34.99599539       0.00459756       0.00325315      -0.00261349
Ti       4.63772374       3.49864807      36.05743985       0.00018312       0.00379689       0.00302918
Ti       4.68914900      -0.88485485      36.07180142      -0.00097841      -0.00126640       0.01105385
Ti       2.03995709       3.50409347      37.34331398      -0.00733122       0.00402872       0.00313666
Ti       1.56806901      -0.57658655      37.35877708      -0.00371118       0.00156143       0.00435721
Ti       7.00336066       3.72831603      37.60927551       0.00621464       0.00372444      -0.00583940
Ti       3.70787650       1.27613701      37.62432516       0.00824586      -0.00598712      -0.00294759
Ti       4.48415020       3.66936764      38.84876993       0.00540764      -0.00097640      -0.00486719
Ti       4.92418510      -0.93397381      38.86286741      -0.00988968       0.00173482      -0.00355019
Ti       5.69690469       1.45050753      40.18187629      -0.00097528      -0.00539621       0.00241622
Ti       2.40006397      -0.99580368      40.19694932       0.00850659      -0.00231502       0.00061551
Ti       3.40482283       5.86575489      40.29217588      -0.00560915       0.00883555      -0.00321832
Ti       2.94231726       1.78092345      40.30941439      -0.00125583      -0.00210366       0.00151139
Ti       4.57917519       3.65990581      41.62062413       0.00259497      -0.00317071       0.01264072
Ti       4.87541024      -0.86327345      41.63599871      -0.00420983       0.00156490      -0.00418835
Ti       2.08634552       3.57216269      43.00679078       0.00468988       0.00343064       0.00488350
Ti       1.62388705      -0.51192445      43.02312959       0.00545411      -0.00484173       0.00457965
Ti       7.06450342       3.78821345      43.00004029      -0.01381883      -0.00356246       0.00010889
Ti       3.74894879       1.35179835      43.01518055      -0.00048679       0.00271925       0.00200245
Ti       4.59158126       3.68145764      44.38570637       0.00229313      -0.00613536      -0.00113786
Ti       4.89697367      -0.84479713      44.40132381      -0.00522052       0.00434479       0.00161227
Ti       3.43824777       5.90342525      45.70610375       0.00039672      -0.00561167       0.00042570
Ti       2.97473567       1.82070944      45.72275174       0.00965536      -0.00086814      -0.00129356
