100
Lattice="4.4265 -2.555641 0.0 3.767997 6.526363 -0.031456 0.0 0.0 45.781652" Properties=species:S:1:pos:R:3:forces:R:3 job_name=SegregationProfile-CSL13-Al-Al-56-d-2.88 top_level=SegregationProfile solute=Al energy=-771.45971039 stress_kbar_3x3="_JSON [[-34.31838653, -2.22858308, -0.09263366], [-2.22858309, -38.66912562, 2.87208022], [-0.09263365, 2.8720802, -18.08938907]]" pbc="T T T"
Ti       2.41901153      -0.98356625       0.10298744      -0.00108984      -0.00205865       0.00591815
Ti       5.71355449       1.46613387       0.08870670      -0.00111935      -0.00202471       0.00555813
Ti       4.98039827      -0.92499533       1.41294281       0.00044835      -0.00530309       0.00287972
Ti       4.49107000       3.70990602       1.39918356      -0.00476410      -0.00250217       0.00301068
Ti       7.03953154       3.75502557       2.56331856      -0.00287916      -0.00180309      -0.00506750
Ti       3.75214540       1.29904706       2.57818254      -0.00011205      -0.00495489      -0.00538431
Ti       1.62571586      -0.54964989       2.95857259       0.00110942      -0.00587326       0.00419798
Ti       2.07085922       3.54087405       2.93838060      -0.00607992      -0.00256817       0.00357794
Ti       4.74916024       3.49250601       4.19841693       0.00263664      -0.01021106       0.00303118
Ti       4.68171734      -0.81950485       4.21772273      -0.01015069      -0.00392409       0.00285091
Ti       3.36417365       5.70240505       5.16843700      -0.00278817      -0.00948157      -0.00593184
Ti       2.87006468       1.64703418       5.18664564      -0.00533994      -0.00805963      -0.00562454
Ti       2.31239229      -1.07721237       5.83387808      -0.00767806      -0.00732487       0.00522044
Ti       5.71347722       1.30994806       5.81936102      -0.00190230      -0.01086055       0.00489214
Ti       4.13388287       3.63220240       6.95649348      -0.01134783      -0.00628874       0.00056568
Ti       5.13344701      -1.29624398       6.97174091       0.00109614      -0.01391713      -0.00086438
Ti       6.83932897       3.39265124       7.77975135      -0.00552106      -0.01252571      -0.00624166
Ti       3.56565463       0.91804130       7.79077553      -0.00715296      -0.01142057      -0.00536726
Ti       6.28309950       0.71304965       8.67329202      -0.00638260      -0.00966853       0.00560989
Ti       5.30130457       5.62684984       8.66486045      -0.00253567      -0.01364625       0.00564540
Ti       4.74434836       2.95638764       9.64854834      -0.00060235      -0.01532748      -0.00466266
Ti       4.26441972      -1.10701825       9.66436610      -0.00941729      -0.00805039      -0.00355934
Ti       3.05971448       5.22422379      10.44283674      -0.01347860      -0.00972647      -0.00581632
Ti       2.64087028       1.12051485      10.45750694      -0.00276528      -0.01519467      -0.00448533
Ti       5.84163702       4.99602664      11.51872135      -0.00372838      -0.00763955       0.00504155
Ti       5.49467834       0.84364671      11.53784124      -0.00687644      -0.00890165       0.00622824
Ti       0.51139342       0.68613928      12.28190423      -0.00140292      -0.01000686      -0.00886437
Ti       3.77754448       3.16542537      12.27377279      -0.00263574      -0.01244857      -0.00537289
Ti       3.15368652       0.52303687      13.18514164      -0.01049606      -0.00160397      -0.00066709
Ti       6.73703728       2.80881962      13.17150964       0.00310865      -0.01335689      -0.00011202
Ti       5.03782278       5.23166431      14.41409569      -0.00393695      -0.00530066       0.00851507
Ti       1.69649170       2.80791943      14.42449842       0.00546845      -0.00711928       0.00788819
Ti       4.49055617       2.45698626      14.85798994      -0.00955128      -0.00522988      -0.01171395
Ti       3.99877646      -1.60324622      14.87042843      -0.00100724       0.00134762      -0.01344037
Ti       7.04030206       2.46967804      15.95968855      -0.00641562       0.00618076       0.00163610
Ti       2.73853376       0.60103528      15.98243694       0.00906074      -0.00329956      -0.00124493
Ti       5.80450665       4.69677520      17.32182506       0.00790380      -0.00307199       0.01054926
Ti       5.29115750       0.63853165      17.33093771       0.00052624       0.00037107       0.00555183
Ti       3.62527286       2.84216822      17.45973976       0.00017311       0.00088356      -0.00733846
Ti       0.35550087       0.38342447      17.48207088      -0.00083293      -0.00056531      -0.00442641
Ti       2.81737357       0.47632474      18.79973161      -0.00307383      -0.00084699       0.00443553
Ti       6.91700095       2.47228181      18.76844292      -0.00341660       0.00239943       0.00445697
Ti       4.95847559       5.13819316      20.20016779       0.00824075       0.00371854      -0.00352518
Ti       1.69112027       2.65830496      20.25744918      -0.00879212       0.01048702      -0.00557389
Ti       4.43515106       2.31947744      20.06650547       0.00880016       0.00236948      -0.00507803
Ti       3.92935849      -1.72166182      20.10602949      -0.00259684       0.00814263      -0.00904496
Ti       6.77657123       2.48847434      21.57945215      -0.00101198       0.00734324       0.00131164
Ti       2.91601708       0.39695029      21.66474613       0.00709212       0.00613154       0.00071426
Ti       3.68423265       2.90155784      22.61696178       0.00045023       0.00323861      -0.00654462
Ti       0.31017540       0.31768156      22.67953773       0.00765103       0.01096277      -0.00567301
Ti       5.75968634       4.67228603      23.11650649      -0.00301158       0.01601511       0.00535685
Ti       5.40580136       0.52479761      23.14021622       0.00128224      -0.00129666       0.00243446
Ti       2.29004567       0.79894935      24.42358080       0.00163124       0.01563229       0.00276504
Ti       7.19128880       2.44295321      24.40043786       0.00886700       0.00321917      -0.00160102
Ti       3.98556545      -1.25555390      25.15934727       0.01321470       0.00237827      -0.00447095
Ti       4.38025105       2.53217909      25.21856623       0.01140336       0.00973756      -0.00712870
Al       6.03656467       0.41024961      26.07692572       0.00138172       0.00399067      -0.00085059
Ti       5.10872989       5.23755768      25.97060066       0.00204818       0.01286304      -0.00394356
Ti       3.22171932       0.73109378      27.08002622       0.00579695       0.00598993      -0.00070578
Ti       6.46833403       3.02389029      27.06673407      -0.00006327       0.01330023      -0.00947476
Ti       4.88142956      -1.70497771      27.78946329       0.00198497       0.01362565      -0.00293417
Ti       3.80665169       3.48407848      27.80505121       0.00434314       0.00723937      -0.00222062
Ti       5.51394932       0.96047305      28.85150244       0.00486332       0.01001246       0.00074371
Ti       5.84199009       5.19967647      28.82944608       0.00523063       0.00998695       0.00588159
Ti       7.50993769       2.85442563      29.67752036       0.00689684       0.00692321      -0.00064294
Ti       2.57571193       1.32196605      29.73050603       0.00887514       0.00776259      -0.00552044
Ti       4.64426483       3.16614220      30.49229903       0.00355057       0.01285768       0.00310898
Ti       4.35407399      -0.99577543      30.54043456       0.00606177       0.00603707      -0.00049135
Ti       6.29637070       0.82317794      31.66853310       0.00388166       0.00587160       0.00094348
Ti       1.48524446      -0.78274836      31.70812773       0.00138296       0.01140348       0.00027771
Ti       3.58065555       1.07728439      32.30824227       0.00411374       0.00739886      -0.00402725
Ti       6.83683883       3.54983308      32.29396203       0.00728086       0.00463215      -0.00644651
Ti       4.24614233       3.63446966      33.27807409       0.00659576       0.00080224       0.00144920
Ti       4.96963603      -1.13251085      33.29111597       0.00213429       0.00975356       0.00156574
Ti       2.31637077      -1.08090385      34.55309040       0.00151711       0.00374882       0.00423810
Ti       5.63161600       1.35651803      34.54384192      -0.00162868       0.00572771       0.00283193
Ti       3.33791560       5.76787746      34.89604675       0.00019672       0.00315205       0.00071217
Ti       2.85098941       1.69198496      34.92050882       0.00339063       0.00264986      -0.00235729
Ti       4.58307292       3.55182071      36.07572410      -0.00072920       0.00160803       0.00462002
Ti       4.74316198      -0.89204396      36.09205122       0.00432659       0.00262724       0.00744030
Ti       2.03627866       3.51030749      37.38765928      -0.00032296      -0.00038316       0.00179683
Ti       1.56138783      -0.56857701      37.40696413       0.00117873       0.00131501       0.00169660
Ti       7.00027115       3.73399240      37.56302295       0.00108115       0.00139870      -0.00135196
Ti       3.70013075       1.28912721      37.57913325      -0.00106207      -0.00066009      -0.00272817
Ti       4.49832656       3.65371552      38.85832801       0.00113402       0.00090407       0.00375013
Ti       4.88962359      -0.92215946      38.87305129      -0.00156769       0.00024284       0.00004533
Ti       5.68880767       1.44106967      40.21821325      -0.00090235      -0.00080527       0.00555660
Ti       2.38520644      -1.00187091      40.23316761      -0.00200927      -0.00089496       0.00513530
Ti       3.38936429       5.85938424      40.26625862       0.00020484       0.00017744       0.00085099
Ti       2.93438195       1.77108550      40.28488846      -0.00003511       0.00061033       0.00149211
Ti       4.55285759       3.65517203      41.62593623      -0.00142474      -0.00063941       0.00354300
Ti       4.87665411      -0.88421500      41.64186017      -0.00072560      -0.00093656       0.00405162
Ti       2.07388525       3.55490983      43.03945938      -0.00095224      -0.00113088       0.00411957
Ti       1.61006874      -0.52780548      43.05677357      -0.00128188      -0.00222179       0.00456660
Ti       7.04952263       3.77215531      42.98134319      -0.00209614      -0.00007421      -0.00033640
Ti       3.73664332       1.33389481      42.99579137       0.00086346       0.00088606      -0.00025684
Ti       4.59121662       3.65283669      44.39495193      -0.00052111      -0.00272588       0.00310215
Ti       4.86900817      -0.85742559      44.41096357      -0.00270982      -0.00140192       0.00478749
Ti       3.42439464       5.87533425      45.68414318      -0.00007340      -0.00057339       0.00061709
Ti       2.95686807       1.79545190      45.70163859      -0.00048085      -0.00020648       0.00034710
