52
Lattice="5.088765 0.0 0.0 0.0 5.495746 0.0 0.0 0.0 32.722931" Properties=species:S:1:pos:R:3:forces:R:3 job_name=SegregationProfile-C1-V-V-35-d-6.31 top_level=SegregationProfile solute=V energy=-402.83556638 stress_kbar_3x3="_JSON [[-40.30822039, 0.01355679, -0.14328416], [0.01355678, -32.11285424, 0.42021614], [-0.14328413, 0.42021613, -22.37775476]]" pbc="T T T"
Ti       2.61789590       0.79584347      32.70181472      -0.00145043       0.00525135      -0.00849133
Ti       0.02890386       1.59885949       1.35731490      -0.00160205       0.00003356      -0.00595892
Ti       0.81804964       4.34682689       1.36400139       0.00053859       0.00044533      -0.00307972
Ti       2.56953025       2.35597029       2.57614769      -0.00094228      -0.00064711       0.00362113
Ti       3.36527063       5.10470228       2.57508936      -0.00370901      -0.00070741       0.00262720
Ti       0.80980121       0.38881322       3.82099325      -0.00150124      -0.00271333       0.00835135
Ti       0.03525246       3.13576670       3.82132414      -0.00272945      -0.00201566       0.00644690
Ti       3.37133995       1.18420304       5.06987042      -0.00268458      -0.00182549       0.00006422
Ti       2.56472610       3.93197679       5.06748862       0.00118948      -0.00098958       0.00054071
Ti       0.01255008       4.70325455       6.31426727      -0.00090795       0.00051488      -0.01073662
Ti       0.83622876       1.95608342       6.31391956      -0.00181571       0.00047098      -0.01060319
Ti       3.37239284       2.73745724       7.56196322      -0.00202684       0.00140932      -0.01033578
Ti       2.56297197       5.48517357       7.56336184       0.00043613       0.00090158      -0.01070622
Ti       0.82775997       3.53958442       8.81201262      -0.00150111      -0.00239332       0.00342760
Ti       0.01875023       0.79218047       8.81050717      -0.00179342      -0.00251184       0.00514378
Ti       2.55657649       1.57321321      10.05980510      -0.00179924      -0.00061882       0.00795785
Ti       3.38096041       4.32078679      10.05996958      -0.00222606      -0.00346081       0.00953454
Ti       0.82645441       5.09219166      11.30114895      -0.00273604      -0.00120887       0.00229167
Ti       0.01989264       2.34371227      11.30526104      -0.00002413      -0.00126383       0.00521187
Ti       3.35340605       0.39175307      12.55288025       0.00019914      -0.00140021      -0.00233166
Ti       2.57774111       3.14065611      12.55253578      -0.00446217      -0.00120446      -0.00141683
Ti       0.02320796       3.91653161      13.79589071      -0.00110978      -0.00268536      -0.00324617
Ti       0.82188246       1.16809447      13.79651626      -0.00274644      -0.00411626      -0.00063884
Ti       2.57281842       4.67026017      15.02202998       0.00224281      -0.00560010       0.00076745
Ti       3.36209854       1.92333469      15.01030229       0.00186647      -0.00953594       0.00209430
Ti       0.76867827       2.72314200      16.39282662       0.00454211      -0.00212421      -0.00729619
Ti       0.06437113       5.46988440      16.40174111      -0.00054159      -0.00225296       0.00316118
Ti       3.36397396       1.93987266      17.76763885       0.00131942      -0.00278343      -0.01052112
Ti       2.55697555       4.68312104      17.79195076       0.00013380      -0.00002631      -0.00529079
Ti       0.03513146       3.89281627      18.99164114       0.00435842       0.00256805       0.00149161
Ti       0.78941069       1.16057003      18.97171254       0.00092296      -0.00125330       0.00905905
Ti       3.38704003       0.35221714      20.26492758       0.00753136       0.00126126       0.00462828
Ti       2.56267351       3.06567169      20.26992032      -0.00015259       0.00794985       0.00707833
Ti       0.89948613       5.12187121      21.42208809      -0.00614075       0.01143563       0.00313483
Ti       0.00284267       2.35205901      21.48374445       0.00237663       0.00324309       0.00530170
V        2.58909288       1.58756173      22.65754812       0.01841250      -0.00276443      -0.00686014
Ti       3.35414091       4.33698495      22.68079659      -0.00941927       0.00063837      -0.00929435
Ti       0.04521115       0.77842693      23.87290118      -0.00310758      -0.00524004      -0.01410305
Ti       0.90106232       3.50293144      23.92667094      -0.00182551      -0.01170095      -0.01482610
Ti       3.40475250       2.76694109      25.08319793       0.00523965      -0.00456829       0.00753462
Ti       2.54488585       0.05281927      25.11568029       0.00252442      -0.00328584       0.00821280
Ti       0.80202983       1.96771321      26.39011953       0.00372726       0.00446614       0.00899378
Ti       0.00801841       4.73086643      26.35761384      -0.00026624       0.00121212       0.01421373
Ti       2.56247124       3.93312327      27.58749376       0.00439377       0.00028651       0.00833185
Ti       3.37075931       1.18038105      27.62944464      -0.00124517       0.00587520       0.01106299
Ti       0.81441001       0.39500368      28.85612516       0.00446968       0.00127904      -0.00030997
Ti       0.02700288       3.15346890      28.86522685      -0.00190769       0.00173065       0.00200490
Ti       2.55677687       2.37121872      30.09916510       0.00062623       0.00560327      -0.00290444
Ti       3.35348656       5.11475174      30.09815595       0.00046037       0.00340256      -0.00323623
Ti       0.80172481       4.35977509      31.32922108      -0.00270341       0.00706622      -0.00505061
Ti       0.02451103       1.61092153      31.31520059       0.00048367       0.00818153      -0.00451175
Ti       3.31079183       3.54330645      32.70996789      -0.00291714       0.00567169      -0.00054017
