100
Lattice="4.4265 -2.555641 0.0 3.767997 6.526363 -0.031456 0.0 0.0 45.781652" Properties=species:S:1:pos:R:3:forces:R:3 job_name=SegregationProfile-CSL13-V-V-58-d-4.19 top_level=SegregationProfile solute=V energy=-775.56537419 stress_kbar_3x3="_JSON [[-37.36350377, -2.8648051, 0.63587031], [-2.86480511, -40.07104997, 0.45672274], [0.63587036, 0.4567227, -18.01755751]]" pbc="T T T"
Ti       2.47325543      -0.90679491       0.00456801       0.00057079       0.00193686       0.00116081
Ti       5.76414815       1.54290340      -0.01139784       0.00110524       0.00052506       0.00087893
Ti       4.98083581      -0.81195480       1.37938682       0.00063552      -0.00001380       0.00017168
Ti       4.59247427       3.76308139       1.36392862       0.00004218      -0.00014907       0.00102019
Ti       7.10053259       3.85257887       2.63388849      -0.00086779      -0.00206624      -0.00038530
Ti       3.80460736       1.40438421       2.64924563      -0.00152516      -0.00167592       0.00015436
Ti       1.65948537      -0.45188783       2.86638191       0.00025994       0.00004409       0.00032937
Ti       2.13852545       3.62197689       2.85039843      -0.00007610       0.00047399       0.00041094
Ti       4.71784413       3.65085059       4.16085243      -0.00021787      -0.00018928       0.00086632
Ti       4.82133564      -0.75960906       4.17653424      -0.00061102       0.00028307       0.00101884
Ti       3.44346724       5.86880129       5.26304895      -0.00123646      -0.00048631      -0.00003602
Ti       2.95214702       1.80091185       5.27867119      -0.00052241      -0.00064105       0.00047771
Ti       2.40769419      -0.96063873       5.74934995      -0.00042259      -0.00101220      -0.00149832
Ti       5.74982125       1.46022091       5.73334969      -0.00085463      -0.00098651      -0.00080585
Ti       4.28747941       3.75703304       6.95592801       0.00094785      -0.00110390       0.00026030
Ti       5.12695934      -1.07846967       6.97168225       0.00019362      -0.00059457       0.00039698
Ti       6.92847369       3.59763535       7.86483045       0.00017157      -0.00122152      -0.00091307
Ti       3.66857509       1.12856892       7.88023217      -0.00007502      -0.00113706      -0.00060372
Ti       6.37734552       0.88692923       8.60859346      -0.00054883       0.00011713       0.00067023
Ti       1.59785272      -0.70429508       8.62474656      -0.00103879      -0.00034158      -0.00072958
Ti       4.78791533       3.18262352       9.69240171      -0.00123892       0.00141377       0.00024508
Ti       4.38150378      -0.93413631       9.70789618      -0.00100054       0.00167474       0.00093025
Ti       3.17808064       5.40883370      10.49180947       0.00023271      -0.00054569      -0.00108537
Ti       2.68690130       1.34125067      10.50697883      -0.00018801       0.00028936       0.00001800
Ti       5.89539204       5.19632995      11.43948754       0.00037586       0.00020673      -0.00079918
Ti       5.57083096       1.03312677      11.45517338       0.00300734      -0.00004315      -0.00018463
Ti       0.58666769       0.91215660      12.38627160       0.00204791       0.00231369      -0.00001895
Ti       3.85730535       3.37706705      12.37031084      -0.00095214       0.00076420      -0.00026403
Ti       3.30566918       0.64831515      13.19228019      -0.00060104       0.00079590      -0.00067641
Ti       6.69631663       3.04104706      13.17751240      -0.00069728       0.00194353      -0.00280498
Ti       5.09285989       5.35705017      14.28451689       0.00121911       0.00179173      -0.00246107
Ti       6.11191696       0.41855981      14.29973852       0.00033679       0.00209228      -0.00147600
Ti       4.54347974       2.64122365      14.98604574      -0.00001717       0.00196452      -0.00225651
Ti       4.03546616      -1.41671988      15.00144557      -0.00039154       0.00058821      -0.00175611
Ti       7.16708722       2.51123115      15.91871675      -0.00201779       0.00101114      -0.00285137
Ti       2.60750860       0.79444288      15.93348206       0.00097592       0.00093794      -0.00174343
Ti       5.74044495       4.81088563      17.15824956       0.00268504       0.00234249       0.00102486
Ti       5.30640500       0.70864580      17.17354577       0.00090185       0.00168502      -0.00077940
Ti       3.61959120       2.96051495      17.58487606      -0.00076606       0.00081662       0.00048154
Ti       0.33768827       0.50032823      17.60214297      -0.00065616       0.00280246       0.00183024
Ti       2.88612840       0.53050144      18.73004409       0.00152808      -0.00219529      -0.00107767
Ti       6.78810863       2.62736729      18.71555064       0.00111967       0.00026033       0.00117469
Ti       4.93038139       5.23100622      20.02167067      -0.00282126      -0.00063242       0.00061803
Ti       1.64000573       2.78477474      20.03863319      -0.00166649       0.00187437       0.00133313
Ti       4.39523790       2.45181262      20.22496207       0.00235016       0.00417633       0.00306648
Ti       3.92463248      -1.62928029      20.23610064       0.00528272       0.00152655       0.00316175
Ti       6.90141860       2.55474323      21.50522681       0.00245509      -0.00202292      -0.00151725
Ti       2.74846339       0.59838586      21.51905205       0.00336524      -0.00264570      -0.00001203
Ti       3.59655592       2.91522687      22.91302278       0.00287412       0.00393000      -0.00139375
Ti       0.28343638       0.48344463      22.92229989      -0.00108778      -0.00079385      -0.00185813
Ti       5.72577901       4.78440077      22.87391858       0.00068847      -0.00161450      -0.00013462
Ti       5.26353599       0.69973931      22.87961815       0.00059509      -0.00076997      -0.00237487
Ti       2.76876325       0.60934944      24.28741544       0.00004137       0.00002925       0.00359656
Ti       6.89039627       2.57901606      24.26613416       0.00062352      -0.00104135      -0.00109893
Ti       3.90321433      -1.55990561      25.63103432       0.00288473       0.00393896       0.00305427
Ti       4.40131030       2.45137486      25.61739658       0.00028206       0.00031091       0.00254146
Ti       1.65617842       2.77834108      25.72723119      -0.00047821      -0.00017232      -0.00038301
Ti       4.94021593       5.29310934      25.72410468       0.00013923       0.00033799      -0.00071144
V        2.84831127       0.59958240      27.01579699       0.00161782      -0.00148026       0.00341322
Ti       6.83317235       2.65253845      27.02877830       0.00074272      -0.00002854      -0.00075951
Ti       0.39762026       0.56039816      28.19336303       0.00128538       0.00236636      -0.00120551
Ti       3.58854095       2.95793456      28.19797554      -0.00112881      -0.00401486      -0.00242582
Ti       5.24239211       0.76881400      28.49103411      -0.00288789      -0.00047761       0.00158016
Ti       5.79572645       4.87249439      28.48225162       0.00123390       0.00226903      -0.00033047
Ti       7.16014674       2.56227284      29.80120523       0.00083264       0.00026112       0.00202415
Ti       2.68618234       0.80004506      29.81560703       0.00251140       0.00099122       0.00050963
Ti       4.56300212       2.65560054      30.77285766      -0.00068498      -0.00146877       0.00174803
Ti       4.06931338      -1.41137597      30.80475932      -0.00069696      -0.00125983       0.00256239
Ti       6.14244203       0.44176936      31.39857499      -0.00204669       0.00022541      -0.00377838
Ti       5.12237802       5.38199498      31.39617767       0.00045250       0.00352492       0.00263675
Ti       3.32530987       0.67438949      32.56581465      -0.00005788       0.00221736      -0.00048536
Ti       6.74094393       3.05373885      32.54421302      -0.00103921       0.00139269       0.00090272
Ti       3.88964899       3.40125786      33.37691633       0.00031280      -0.00022164      -0.00400435
Ti       0.62476409       0.93554324      33.39089567       0.00222094       0.00154121       0.00005299
Ti       5.93173089       5.22470432      34.26363580       0.00024930      -0.00158114      -0.00111615
Ti       5.61502961       1.06193044      34.28121123       0.00010892      -0.00166906       0.00024816
Ti       3.22023084       5.43931112      35.22977629      -0.00221692      -0.00063326      -0.00006046
Ti       2.72960968       1.37332890      35.24911108      -0.00243485       0.00031618      -0.00147307
Ti       4.83396999       3.21957188      36.03832503      -0.00354964       0.00017995       0.00118688
Ti       4.42706810      -0.89611672      36.05316080      -0.00156836       0.00054397      -0.00034435
Ti       6.41598817       0.93035011      37.15312027      -0.00079110      -0.00025644      -0.00369367
Ti       1.64460342      -0.66718264      37.16482671       0.00000581      -0.00274799       0.00016898
Ti       6.98131393       3.64312239      37.83629754      -0.00182401      -0.00288562       0.00014119
Ti       3.70712661       1.17368758      37.85600226      -0.00051246      -0.00371981       0.00102277
Ti       4.35553816       3.77722801      38.77189281      -0.00218751       0.00222437      -0.00137913
Ti       5.14207383      -1.02900030      38.78687995      -0.00284677      -0.00030358       0.00176061
Ti       5.77153390       1.48515715      40.03786117      -0.00125044      -0.00256906       0.00205879
Ti       2.43351819      -0.94046791      40.05696127       0.00001422      -0.00016783       0.00175747
Ti       3.46589881       5.89623522      40.42671675      -0.00017943      -0.00117785       0.00080387
Ti       2.98076387       1.82819991      40.44376180      -0.00130175      -0.00290654       0.00193270
Ti       4.70540432       3.68023794      41.57636083       0.00180011      -0.00060261      -0.00047520
Ti       4.86197717      -0.76080367      41.58709659      -0.00068700      -0.00006192      -0.00008922
Ti       2.14504519       3.62724654      42.91345759      -0.00175283      -0.00026600      -0.00082947
Ti       1.66502209      -0.44495979      42.92814095      -0.00023230       0.00135017      -0.00060095
Ti       7.10866157       3.86048324      43.05464294       0.00127761      -0.00305654       0.00119389
Ti       3.81059044       1.40918006      43.07292084      -0.00060256      -0.00205780       0.00133736
Ti       4.60971796       3.75710023      44.36713045       0.00168021      -0.00006694      -0.00071816
Ti       4.96853633      -0.80142068      44.38191218       0.00207619      -0.00045658      -0.00263169
Ti       3.48056703       5.96059109      45.73793360      -0.00225556      -0.00162989       0.00023514
Ti       3.01305371       1.87866039      45.75323428      -0.00104826      -0.00273897       0.00092102
