52
Lattice="5.088765 0.0 0.0 0.0 5.495746 0.0 0.0 0.0 32.722931" Properties=species:S:1:pos:R:3:forces:R:3 job_name=SegregationProfile-C1-V-V-31-d-3.83 top_level=SegregationProfile solute=V energy=-402.86503545 stress_kbar_3x3="_JSON [[-39.79217114, -0.00872566, -0.42283694], [-0.00872567, -31.9682966, -0.901551], [-0.42283694, -0.90155099, -23.01664337]]" pbc="T T T"
Ti       2.62983880       0.79752364      32.71176470      -0.00320844      -0.00177913       0.00991805
Ti       0.03154291       1.60194441       1.36713942      -0.00177458       0.00118502      -0.00042790
Ti       0.81754603       4.35103340       1.36347436       0.00382000      -0.00015614      -0.00226110
Ti       2.57101698       2.35897051       2.58160096       0.00350594       0.00003204      -0.01271443
Ti       3.36739518       5.10667387       2.58192366      -0.00224439      -0.00153551      -0.01227740
Ti       0.81222188       0.38948474       3.83208521       0.00069962      -0.00173113      -0.00422392
Ti       0.03932362       3.13832997       3.83146612       0.00057591       0.00086010      -0.00520849
Ti       3.37271945       1.18373479       5.07888749       0.00467832      -0.00186651       0.00970572
Ti       2.56821099       3.93214304       5.08161885      -0.00208475       0.00209107       0.01189283
Ti       0.01490139       4.70460617       6.32729744       0.00275459       0.00124513       0.01501928
Ti       0.83550182       1.95604063       6.32473921       0.00063705      -0.00114464       0.01426577
Ti       3.37643148       2.73732111       7.57925424      -0.00092207       0.00235501       0.00196481
Ti       2.56893662       5.48622389       7.57480758       0.00203896       0.00349069       0.00055208
Ti       0.83883059       3.54108924       8.82596691       0.00366563       0.00021654      -0.01487690
Ti       0.02898470       0.79090783       8.82685766       0.00289605      -0.00108293      -0.01083145
Ti       2.56654837       1.57126144      10.07900206       0.00002325      -0.00603282      -0.01637794
Ti       3.38519762       4.32438458      10.07120406      -0.00201828       0.00081786      -0.00974234
Ti       0.83302702       5.09720507      11.32978316      -0.00144582       0.00008058      -0.00564028
Ti       0.03177038       2.34714013      11.31358711      -0.00136373       0.00555772       0.00010238
Ti       3.38043495       0.39940186      12.57492997       0.00208694      -0.00006149       0.00296100
Ti       2.59500989       3.14565925      12.56203819      -0.00282289       0.00204851       0.00109172
Ti       0.05234923       3.90990669      13.82135522       0.00767235       0.00424234       0.00394556
Ti       0.82775045       1.16661202      13.80490985      -0.00534808      -0.00169578       0.00342616
Ti       2.57477522       4.71615446      15.01844145      -0.00714891       0.00895245       0.00167434
Ti       3.35041864       1.97499754      15.04522970       0.00547740      -0.00038608       0.01091232
Ti       0.77152834       2.71558740      16.43658686      -0.00595986       0.00086465      -0.00491019
Ti       0.08412677       5.47066284      16.34741836       0.00488624       0.00124308      -0.00773050
Ti       3.40225147       1.79322924      17.82443541      -0.00261882      -0.00347921       0.00026055
Ti       2.52911169       4.58264124      17.78848024      -0.00245522      -0.00811019       0.00027032
Ti       5.02209451       4.01176169      18.95283833      -0.01059113       0.00580127      -0.00830886
Ti       0.83867836       1.23822650      18.98739113       0.00462643       0.00946666      -0.00514167
V        3.24816919       0.37792886      20.17637006      -0.00223644       0.00562192      -0.00755877
Ti       2.61947361       3.13003132      20.18596921       0.01537858      -0.00373416      -0.00028466
Ti       0.83335791       5.03769662      21.40479878       0.00369050      -0.00061227       0.00535226
Ti       5.01558427       2.27120017      21.44164828      -0.00820338      -0.01053450       0.00202732
Ti       2.50566078       1.61175707      22.59330378       0.00156330       0.00736923       0.00958753
Ti       3.41162611       4.38898524      22.60932188      -0.00004299      -0.00983657       0.01090664
Ti       0.05144405       0.79706518      23.89688785       0.00438622      -0.00472365       0.00553119
Ti       0.81541306       3.55038739      23.86079785      -0.00435942      -0.00185280       0.01443567
Ti       3.37408210       2.73137872      25.10777904      -0.00257489      -0.00651251      -0.00854010
Ti       2.55660143       5.47223619      25.13834940      -0.00608205       0.00227746      -0.00821386
Ti       0.85224404       1.97298726      26.37695887      -0.00246242       0.00718537      -0.01264082
Ti       0.00694119       4.71193969      26.36333692       0.00048040      -0.00488629      -0.00769447
Ti       2.58828022       3.94002196      27.61224404      -0.00177751      -0.00425139      -0.01008404
Ti       3.38175479       1.19672136      27.60400737       0.00222603       0.00021601      -0.00732006
Ti       0.81846033       0.38930520      28.85626267       0.00051076      -0.00078306      -0.00821855
Ti       0.04743806       3.13734633      28.87127481      -0.00212749      -0.00178106      -0.00773176
Ti       2.57347238       2.36121586      30.10559594       0.00415736       0.00393243       0.00937580
Ti       3.37737530       5.11141481      30.11014490      -0.00655619      -0.00124791       0.01094813
Ti       0.82835831       4.35456395      31.32652416       0.00724803      -0.00168170       0.01707729
Ti       0.04442637       1.60705558      31.32686346      -0.00278198       0.00210582       0.01666033
Ti       3.31706532       3.54829884      32.70418278       0.00152589       0.00224043       0.00909540
