100
Lattice="4.4265 -2.555641 0.0 3.767997 6.526363 -0.031456 0.0 0.0 45.781652" Properties=species:S:1:pos:R:3:forces:R:3 job_name=SegregationProfile-CSL13-Al-Al-60-d-5.27 top_level=SegregationProfile solute=Al energy=-771.65670676 stress_kbar_3x3="_JSON [[-36.2900008, -2.17609276, 1.15566318], [-2.17609278, -38.25157478, 0.43882914], [1.15566316, 0.43882914, -17.03275031]]" pbc="T T T"
Ti       2.44625975      -0.97984126       0.06476807       0.00325350      -0.00016184       0.00178002
Ti       5.74378196       1.46541340       0.04720045       0.00031959       0.00065577       0.00341813
Ti       4.97583643      -0.89322299       1.39431443       0.00002172       0.00032063       0.00082326
Ti       4.54668765       3.70391437       1.37752985       0.00233875      -0.00306482       0.00332031
Ti       7.07078091       3.78505355       2.60931573      -0.00182767      -0.00208015       0.00256426
Ti       3.77527773       1.33594509       2.62593177       0.00480368      -0.00192449       0.00320314
Ti       1.63987297      -0.51713413       2.90317605      -0.00130741      -0.00357592       0.00091302
Ti       2.10833984       3.56621858       2.88904887       0.00188865      -0.00474036       0.00069326
Ti       4.71586919       3.58105201       4.17542016      -0.00204656      -0.00680872      -0.00144627
Ti       4.77056604      -0.80190302       4.19018178      -0.00022496      -0.00710673      -0.00057155
Ti       3.41026521       5.80457702       5.23622552       0.00078784      -0.00566675      -0.00005658
Ti       2.91891103       1.73666621       5.25047235      -0.00153283      -0.00454004      -0.00033552
Ti       2.36999123      -1.00757083       5.77333608       0.00001744      -0.00956090      -0.00112424
Ti       5.73416330       1.39976710       5.75705613      -0.00497114      -0.00739231      -0.00174015
Ti       4.23673555       3.71473437       6.95740960      -0.00100076      -0.00682871      -0.00194865
Ti       5.11946553      -1.14655307       6.97287355      -0.00406880      -0.00478503      -0.00170281
Ti       6.89315326       3.53639218       7.83573480      -0.00150307      -0.00690688      -0.00128577
Ti       3.63661497       1.06626146       7.85132464      -0.00342688      -0.00417094       0.00091687
Ti       6.34113968       0.83931051       8.61833691      -0.00128151      -0.00693513      -0.00178672
Ti       1.57630210      -0.76009657       8.63425008      -0.00259212      -0.00494061      -0.00145238
Ti       4.76799619       3.12920392       9.68148080      -0.00238550      -0.00365274      -0.00196971
Ti       4.34422264      -0.97715292       9.69710813      -0.00162827      -0.00421120      -0.00144345
Ti       3.14496794       5.36436210      10.46922921      -0.00224568      -0.00396167      -0.00116972
Ti       2.66560783       1.28980240      10.48430966      -0.00210927      -0.00612190       0.00019098
Ti       5.86927773       5.15490384      11.44451169      -0.00225085      -0.00310908       0.00025691
Ti       5.54819739       0.99070023      11.45818495      -0.00344869      -0.00347751       0.00142389
Ti       0.56696802       0.86810387      12.36426963      -0.00187023      -0.00127906      -0.00424941
Ti       3.82758274       3.33456747      12.34820542      -0.00175124      -0.00496733      -0.00410393
Ti       3.27197364       0.61526749      13.17799801      -0.00389958       0.00147987      -0.00086210
Ti       6.68482617       2.99810309      13.16195107      -0.00099476      -0.00520939       0.00035419
Ti       5.06626240       5.32725249      14.29023527      -0.00437761       0.00049103       0.00105979
Ti       6.09559645       0.38219204      14.30339386       0.00052675       0.00123827       0.00671004
Ti       4.51738676       2.60098151      14.95611239      -0.00432260      -0.00439234      -0.00354962
Ti       4.00799199      -1.45921356      14.97033039       0.00085240      -0.00039293      -0.00770179
Ti       7.12699525       2.49048967      15.91242685      -0.01102475      -0.00040357      -0.00088152
Ti       2.60661875       0.74805626      15.92895901       0.00930054       0.00648093      -0.00062787
Ti       5.72797179       4.77538838      17.17721497       0.00280836      -0.00140235       0.00319023
Ti       5.27866947       0.67924839      17.18755018      -0.00040584       0.00965050       0.00409093
Ti       3.59606141       2.91830897      17.55032420      -0.00304525      -0.00163493      -0.00769846
Ti       0.31209545       0.46210559      17.56777926       0.00074833       0.00351517      -0.00426999
Ti       2.84642201       0.50556833      18.72960193       0.00365328       0.00944655       0.00409468
Ti       6.78579371       2.58199427      18.70933738       0.00209868      -0.00452538       0.00892266
Ti       4.89881065       5.20086145      20.05279325       0.00291702       0.00109683       0.00275664
Ti       1.62119481       2.74033067      20.06618728       0.00643048       0.01004978       0.00255210
Ti       4.37492171       2.40805048      20.18837165       0.00526868      -0.00268027      -0.00522327
Ti       3.89006252      -1.67157086      20.20383988      -0.00513196      -0.00078287      -0.00608247
Ti       6.85321416       2.50750623      21.50308681      -0.00659615       0.00321603      -0.01093358
Ti       2.75052495       0.53961911      21.51666626       0.00699006       0.00394701      -0.00761379
Ti       3.57376669       2.86962472      22.84120459       0.00427028       0.00078861      -0.00734428
Ti       0.27359300       0.39819916      22.86915993       0.00336890       0.00672502      -0.00288927
Ti       5.72265041       4.72623721      22.92004510      -0.00009385      -0.00846086       0.00373735
Ti       5.22748355       0.64372774      22.94377761      -0.00474080       0.00153308       0.00029620
Ti       2.68088558       0.60450583      24.31410270      -0.00096189       0.01381789       0.00370230
Ti       6.89322704       2.47441209      24.30721511       0.00324678       0.01099911       0.00969646
Ti       3.77445853      -1.62972878      25.42779923       0.00836102      -0.00638321       0.00857016
Ti       4.37540370       2.49658906      25.47629509      -0.00097481      -0.00523972      -0.00451478
Ti       5.97113317       0.17206104      25.90874208       0.00081278       0.00300489       0.00006621
Ti       4.88274632       5.32140340      25.75552011      -0.00008679       0.01290400       0.00233197
Ti       3.05514074       0.49399816      27.14305500       0.00868186       0.00233426      -0.00397353
Ti       6.67992184       2.70418206      27.09991354      -0.00277462       0.01446833      -0.01016939
Al       4.77881516      -1.84925178      27.95120563      -0.00722782       0.00607246      -0.01311185
Ti       3.68294146       3.08675560      28.04782593       0.00274772       0.00298865       0.00090044
Ti       5.44572172       0.79676133      28.79735750      -0.00460207       0.00710035      -0.00102550
Ti       5.67867401       4.95615925      28.68550074       0.00960304       0.00481938       0.00320154
Ti       3.04461817       5.21850441      29.81182074      -0.00017012       0.00145161      -0.00089419
Ti       2.42992752       1.04697242      29.84204452       0.01081457       0.00752907       0.00391131
Ti       4.65155048       2.92108755      30.60854901      -0.00244443       0.00203583      -0.00502144
Ti       4.12890960      -1.07853783      30.55697987       0.00295070       0.01193327       0.00544124
Ti       6.23902610       0.61555984      31.57610738       0.00073576       0.00392948      -0.00510279
Ti       5.29961155       5.58697718      31.64342809       0.00211813       0.00346760      -0.00168597
Ti       3.57372864       0.93442818      32.44611759       0.00068875       0.00277547      -0.00654330
Ti       6.76499813       3.30384334      32.46038233       0.00874661      -0.00103293       0.00257965
Ti       4.09328650       3.60601352      33.28773153      -0.00034656      -0.00203178       0.00477705
Ti       5.03799360      -1.31947258      33.26764524       0.00108053       0.00338357       0.00162031
Ti       2.32984983      -1.15720387      34.48336389      -0.00547968      -0.00322007      -0.00025107
Ti       5.71138108       1.25773576      34.45257368       0.00252456      -0.00356528       0.00274123
Ti       3.38404735       5.68904759      35.02542896       0.00443156      -0.00803467      -0.00115157
Ti       2.83776215       1.58468081      35.04709039      -0.00059420      -0.00571984       0.01163195
Ti       4.71196529       3.45355675      36.03779259      -0.00263144      -0.00541424       0.00151929
Ti       4.70300091      -0.87581334      36.06465966      -0.00030858      -0.00644291       0.00374946
Ti       2.08858826       3.48585150      37.31485522       0.00009876      -0.00861604      -0.00047286
Ti       1.62598972      -0.59965025      37.35410408      -0.00324305      -0.00172649      -0.00229173
Ti       7.04325016       3.70775551      37.63358680       0.00086219      -0.00349804       0.00723331
Ti       3.75990551       1.26205846      37.65223634      -0.00126468      -0.00133009       0.00469351
Ti       4.51898553       3.65944892      38.84223517      -0.00101312       0.00297419       0.00264227
Ti       4.97775962      -0.95665524      38.85905628      -0.00075484      -0.01022225       0.00170372
Ti       5.73866256       1.43174115      40.17297349      -0.00313991       0.00121181      -0.00013373
Ti       2.44204495      -1.02068293      40.18940129      -0.00378633      -0.00388495      -0.00319621
Ti       3.44819132       5.84401459      40.30200595       0.00094493       0.00444157       0.00142279
Ti       2.98184241       1.75809098      40.31679455      -0.00226454       0.00689678       0.00459342
Ti       4.61344906       3.63194984      41.62111891       0.00079855       0.00395404      -0.00109743
Ti       4.90910230      -0.88609204      41.63660028      -0.00279964       0.00336801      -0.00007254
Ti       2.11238892       3.54468290      43.00355076       0.00117969       0.00101210      -0.00288105
Ti       1.65099516      -0.53974858      43.01886906      -0.00388969       0.00499151      -0.00445516
Ti       7.09107428       3.76012052      43.00396103      -0.00189267       0.00759641      -0.00005463
Ti       3.77493878       1.32441073      43.02089815       0.00243533       0.00382963       0.00063126
Ti       4.61040695       3.65594789      44.38617857      -0.00122833       0.00265478      -0.00051600
Ti       4.91648405      -0.87467093      44.40111446       0.00284439       0.00385701       0.00215443
Ti       3.44961904       5.87929175      45.71092403       0.00415790       0.00193728       0.00640945
Ti       2.98849733       1.79488376      45.72429952      -0.00154460       0.00384277       0.00548802
