64
Lattice="5.871999 0.0 0.0 0.0 6.890708 0.0 0.0 0.0 27.401158" Properties=species:S:1:pos:R:3:forces:R:3 job_name=SegregationProfile-T1m-Al-Al-34-d-0.00 top_level=SegregationProfile solute=Al energy=-491.9078509 stress_kbar_3x3="_JSON [[-10.44807343, 0.00068945, -0.00037792], [0.00068944, -9.76557871, -0.00903207], [-0.00037789, -0.00903206, -21.42443064]]" pbc="T T T"
Ti       2.93603922       0.10156979      27.40084788       0.00008949      -0.00818925       0.00053912
Ti       2.93601646       2.93851157      27.40102955       0.00007149      -0.00543639       0.00042523
Ti       0.00003328       0.09973745      27.40085064      -0.00010684      -0.00819264       0.00074029
Ti       0.00002977       2.93817525      27.40102996      -0.00003525      -0.00544617       0.00042226
Ti       4.40466250       5.02641302       1.41443044      -0.00004261       0.00191106       0.00180260
Ti       1.46739189       5.02642833       1.41445073      -0.00010571       0.00181788       0.00171467
Ti       4.40386221       1.31772204       2.03262458      -0.00002071      -0.00794835       0.00109873
Ti       1.46819101       1.31770235       2.03260975       0.00008400      -0.00778219       0.00121110
Ti       2.93602747       3.40805209       3.21466170      -0.00005711      -0.00363510       0.00134930
Ti       0.00004421       3.40716368       3.21279245      -0.00010293      -0.00345992       0.00110838
Ti       2.93603002       6.22651378       3.62592334       0.00001224      -0.00362915      -0.00184311
Ti       0.00003307       6.22567529       3.62648683      -0.00000723      -0.00306865      -0.00160113
Ti       1.46725296       1.48450435       4.84963545       0.00022307      -0.00340671      -0.00044321
Ti       4.40478526       1.48450565       4.84963126      -0.00016764      -0.00343013      -0.00045342
Ti       1.46700431       4.43657934       5.45302150       0.00022857      -0.00401891       0.00209376
Ti       4.40505572       4.43657532       5.45301303      -0.00026694      -0.00391284       0.00212197
Ti       2.93603176       6.58562749       6.61567938       0.00001658      -0.00210638       0.00627845
Ti       0.00000567       6.58253683       6.61894774       0.00001922      -0.00210188       0.00586989
Ti       2.93601940       2.51604828       7.12072673       0.00001951      -0.00261121       0.00477439
Ti       0.00000770       2.51260434       7.11296798       0.00005899      -0.00251275       0.00499189
Ti       4.39557342       4.65979167       8.28214997      -0.00052527       0.00210991       0.00296863
Ti       1.47646897       4.65978050       8.28218043       0.00053572       0.00211531       0.00308222
Ti       4.40253018       0.73319189       8.88643644       0.00060339       0.00094783       0.00424059
Ti       1.46947513       0.73319577       8.88636244      -0.00048356       0.00096197       0.00412386
Ti       5.87198919       2.87775786      10.12115500       0.00001109       0.00280147       0.00718161
Ti       2.93600982       2.87521439      10.13777802       0.00001553       0.00229186       0.00869693
Ti       5.87195222       5.69608228      10.47104007      -0.00006248       0.00355961      -0.00216858
Ti       2.93610413       5.70540132      10.51683227       0.00005607       0.00580007      -0.00107685
Ti       1.44107408       0.89513633      11.71438004      -0.00230304       0.01097437      -0.00262241
Ti       4.43082288       0.89523289      11.71453456       0.00215669       0.01100457      -0.00261752
Ti       1.50538965       4.13009004      12.31282213       0.00418064       0.00166806       0.00174318
Ti       4.36670056       4.13003385      12.31286426      -0.00412267       0.00158772       0.00187929
Ti       2.93553556       2.09136923      13.70090122      -0.00036368       0.00991161       0.00021930
Ti       0.00025928       2.21559455      13.70089416       0.00025954       0.01611009       0.00008763
Al       2.93607276       6.19338998      13.70072989      -0.00009008       0.00286214       0.00015388
Ti       0.00005128       6.25562468      13.70073402       0.00006802       0.00819378       0.00002704
Ti       4.36663027       4.13018566      15.08846269      -0.00421316       0.00143657      -0.00235408
Ti       1.50543025       4.13025711      15.08850256       0.00436235       0.00148302      -0.00231774
Ti       4.43088820       0.89509399      15.68691775       0.00205945       0.01074301       0.00203191
Ti       1.44102336       0.89501633      15.68706357      -0.00218445       0.01061677       0.00218385
Ti       2.93607687       5.70539093      16.88417995       0.00015112       0.00576522       0.00083492
Ti       5.87194731       5.69599657      16.93001493      -0.00008458       0.00374653       0.00207556
Ti       2.93600874       2.87518356      17.26324247       0.00005463       0.00227984      -0.00901947
Ti      -0.00000493       2.87771210      17.27990612      -0.00001281       0.00260219      -0.00727356
Ti       4.40253092       0.73321979      18.51471588       0.00063665       0.00067837      -0.00438311
Ti       1.46950254       0.73322002      18.51478626      -0.00058213       0.00069514      -0.00432077
Ti       4.39555593       4.65976057      19.11892508      -0.00060382       0.00219930      -0.00263538
Ti       1.47646217       4.65974769      19.11888854       0.00064721       0.00220447      -0.00269437
Ti       0.00003039       2.51265553      20.28818723      -0.00001670      -0.00234496      -0.00426297
Ti       2.93602569       2.51609045      20.28040606      -0.00003383      -0.00221545      -0.00423942
Ti       0.00000503       6.58252976      20.78223199       0.00006006      -0.00237139      -0.00547679
Ti       2.93602385       6.58564104      20.78549493      -0.00000495      -0.00244420      -0.00586946
Ti       1.46700189       4.43664896      21.94821518       0.00016736      -0.00394785      -0.00177278
Ti       4.40502816       4.43664739      21.94824029      -0.00014820      -0.00380610      -0.00184572
Ti       1.46725973       1.48452145      22.55154585       0.00011760      -0.00333536       0.00057468
Ti       4.40479621       1.48452733      22.55153054      -0.00009150      -0.00334896       0.00066503
Ti       2.93602130       6.22657066      23.77534725       0.00000449      -0.00370808       0.00128879
Ti       0.00001389       6.22573574      23.77479967       0.00007295      -0.00337377       0.00085222
Ti       2.93602530       3.40809633      24.18650104      -0.00003070      -0.00341984      -0.00224771
Ti       0.00003978       3.40724925      24.18840394      -0.00019208      -0.00349253      -0.00226536
Ti       4.40387577       1.31788875      25.36829311      -0.00001626      -0.00792682      -0.00096980
Ti       1.46818212       1.31787759      25.36831576      -0.00003842      -0.00787804      -0.00108442
Ti       4.40466647       5.02629460      25.98654136       0.00014352       0.00174087      -0.00177183
Ti       1.46737929       5.02629998      25.98655617      -0.00006989       0.00168137      -0.00182218
