64
Lattice="5.088765 0.0 0.0 0.0 9.739025 0.0 0.0 0.0 22.303587" Properties=species:S:1:pos:R:3:forces:R:3 job_name=SegregationProfile-T2-V-V-38-d-2.12 top_level=SegregationProfile solute=V energy=-496.05780744 stress_kbar_3x3="_JSON [[-3.69616468, -0.91384818, 0.52835323], [-0.91384817, -17.94466764, -4.11395762], [0.52835323, -4.11395759, -20.47553393]]" pbc="T T T"
Ti       2.54697927       9.27402820      22.27834500       0.00084999       0.00392440       0.00289326
Ti       0.00095999       4.40352996      22.28082551       0.00346646       0.00182478       0.00043075
Ti       1.26894016       1.88659316       0.60325554       0.00271739      -0.00190252       0.00064680
Ti       3.81434771       6.75362126       0.61150328      -0.00010184       0.00222473       0.00030062
Ti       2.72867770       4.07251648       1.39121712       0.00759833       0.00193828      -0.00417539
Ti       0.19143310       8.93967832       1.39215833      -0.00166678      -0.00157525      -0.00207031
Ti       1.04225758       6.21566279       2.12747807       0.00309777       0.00904137      -0.00564588
Ti       3.58521801       1.35102006       2.11868634      -0.00215001       0.00651330      -0.00722159
Ti       0.22073556       3.51128990       2.76157750      -0.00546651       0.00777139      -0.00593996
Ti       2.76806393       8.37980817       2.75993672      -0.00050873       0.00650752      -0.00070596
Ti       1.10979857       0.89754483       3.50240343       0.00568391       0.00018897      -0.00500255
Ti       3.65526015       5.76184291       3.51174158       0.00170553       0.00130911      -0.00144889
Ti       2.74950973       3.14075531       4.18532834       0.00578272       0.00112359       0.00215548
Ti       0.21071530       8.00917738       4.18307187       0.00108424       0.00475368      -0.00425981
Ti       3.60963604       0.47681436       4.86018512       0.00011820       0.00078301       0.00625979
Ti       1.06397320       5.34239950       4.87677803      -0.00474814       0.00477684       0.00246012
Ti       2.76546032       7.56294655       5.56484175       0.00254908      -0.00179854      -0.00500085
Ti       0.21260896       2.69821519       5.56698056       0.00132113      -0.00125048       0.00213693
Ti       3.60266362       4.89685068       6.33111152      -0.00195145       0.00355680      -0.00088665
Ti       1.06004415       0.04009246       6.30705729      -0.00592601       0.00140199       0.00510309
Ti       0.21508044       7.11839312       6.97822794      -0.00365366       0.00790717      -0.00101610
Ti       2.74865088       2.25138676       6.98087549      -0.00502741       0.00761362       0.01114929
Ti       1.08469633       4.46099707       7.68611438       0.01001602      -0.00216861       0.00321571
Ti       3.63970256       9.33986094       7.65945718       0.00162023       0.00674811      -0.00528895
Ti       0.15989254       1.89159316       8.38418094       0.00739734      -0.00435189       0.00461785
Ti       2.72228066       6.74306940       8.37557562      -0.00167470      -0.01039246       0.00461523
Ti       1.02132315       8.94877360       9.06617858      -0.00078772       0.00217303      -0.00089815
Ti       3.53433963       4.05387502       9.12395346      -0.01007309      -0.00009768       0.00036144
Ti       2.73965821       1.35455240       9.72524991      -0.00367991      -0.00076062       0.00286935
Ti       0.23360272       6.21570527       9.70971208      -0.00133820       0.00277336       0.01015573
Ti       3.74546074       8.34308173      10.53392556       0.00330489      -0.00957293       0.00591218
Ti       1.13211898       3.48451093      10.65404013       0.00515032      -0.00901701       0.00396343
Ti       5.02072970       0.90411073      11.23350930      -0.00233923       0.00017385       0.00234068
Ti       2.51487828       5.75702384      11.24883904      -0.00406076      -0.00094958       0.00434377
Ti       3.66304149       3.32821136      11.85810999      -0.00921438       0.00201400       0.01044845
Ti       1.22629851       8.18334795      11.74132300      -0.00214471       0.00088453      -0.00474177
Ti       2.44293217       1.03156090      12.48519743       0.00648694       0.00974910      -0.00105290
Ti       5.08491880       5.88205485      12.46685750      -0.00097396      -0.01158096      -0.00828413
V        1.47146064       3.87872412      13.34577105      -0.00224709       0.00251658      -0.00316475
Ti       4.08308124       8.70615369      13.28305673      -0.00040940       0.00242457      -0.01552847
Ti       4.89809629       1.74306174      13.89974364      -0.00518000       0.00359586      -0.00250486
Ti       2.29730671       6.56737487      13.91919292       0.00729223       0.00023219      -0.01074481
Ti       1.46242463       9.26477581      14.64435422      -0.00260205      -0.00959086       0.00979147
Ti       4.01659511       4.43039298      14.60952069       0.00562058      -0.01285562      -0.00375779
Ti       4.90234475       7.03436163      15.36300080       0.00358705      -0.01228201       0.01483793
Ti       2.35598449       2.17417134      15.25600679       0.00083197      -0.00370508       0.00201886
Ti       1.49213743       4.81685674      15.98905910      -0.00879020       0.00694112      -0.00542825
Ti       4.02896185       9.71487819      15.99003717       0.00717362       0.00457835       0.00463335
Ti       2.36303697       7.49476083      16.71683460      -0.00991121      -0.00249267      -0.00907146
Ti       4.88452214       2.64201507      16.68905020      -0.00199024       0.00385053      -0.00369024
Ti       4.03166751       5.27990335      17.43530916       0.00223573      -0.00090779      -0.00637971
Ti       1.49082086       0.41832253      17.41980977      -0.00392145      -0.00508650      -0.00376423
Ti       4.89364188       7.96576236      18.10414473       0.00232859      -0.00680441      -0.00748599
Ti       2.34888550       3.08449317      18.08891145       0.00579337       0.00525986       0.00186652
Ti       1.45149158       5.72149328      18.78099267      -0.00137007      -0.00649187      -0.00084757
Ti       4.00219935       0.85741045      18.77752247       0.00130466      -0.00616346      -0.00025399
Ti       2.32294380       8.36421650      19.52930808       0.00696380      -0.00126509       0.00173236
Ti       4.86864436       3.49346066      19.51858599      -0.00123409      -0.00309660      -0.00162103
Ti       1.53418936       1.36007104      20.16037064      -0.00466308       0.00116375       0.00540348
Ti       4.07568272       6.22930729      20.16849854       0.00326207       0.00315431       0.00070022
Ti       4.94762895       8.98396429      20.91238044      -0.00681172       0.00518733       0.00454009
Ti       2.39743734       4.10927653      20.90897388      -0.00052954       0.00161687      -0.00156622
Ti       3.81531873       1.91091819      21.68421837       0.00305734      -0.00395687       0.00291297
Ti       1.27094425       6.77803656      21.69076934      -0.00225414      -0.00808052       0.00463202
