52
Lattice="4.6568 0.0 0.0 0.0 7.770572 0.0 0.0 0.0 25.044546" Properties=species:S:1:pos:R:3:forces:R:3 job_name=SegregationProfile-CSL7-V-V-29-d-2.09 top_level=SegregationProfile solute=V energy=-401.51745612 stress_kbar_3x3="_JSON [[-18.96165623, 1.06473941, -1.43475779], [1.0647394, -25.99588537, 1.49691398], [-1.4347578, 1.49691402, -22.5712245]]" pbc="T T T"
Ti       1.81373045       7.39595914       0.70346953       0.00021865       0.00115643       0.00014249
Ti       4.63327903       5.59674118       1.36575793      -0.00596210      -0.00169767       0.00040734
Ti       2.45935263       2.27510950       1.61011913       0.00082368      -0.00005426      -0.00081344
Ti       4.56650801       0.62205405       2.08171134       0.00604031      -0.00022297      -0.00255265
Ti       2.35876006       5.00801413       2.82715283       0.01033866      -0.00386018       0.00326591
Ti       0.02571402       3.33324211       3.01956518       0.00115538       0.00088531      -0.00866528
Ti       2.31268570       0.01060543       3.65261660       0.00512432      -0.00694690      -0.00514863
Ti       0.03554322       6.10158578       4.09572427       0.00450732      -0.00392140       0.00938738
Ti       2.34430353       2.76076654       4.60674735       0.00435060      -0.00466335       0.00658717
Ti       0.00971845       1.11138539       5.00386201       0.00562999      -0.00070365       0.00856554
Ti       2.35513845       5.56093779       5.62356471       0.00454320       0.00467585       0.00371950
Ti       0.01749346       3.86664095       5.96072594       0.00505612      -0.00921202      -0.00106102
Ti       2.34621815       0.55574584       6.58796343       0.00303594       0.00260160      -0.00309763
Ti       0.03227570       6.63050609       6.92781294       0.00195932      -0.00654416      -0.00212954
Ti       2.34667835       3.30973301       7.54643404       0.00275625      -0.01053868       0.00186613
Ti       0.02869253       1.65800333       7.94063329       0.00202984       0.00244270      -0.00383127
Ti       2.37444009       6.09106598       8.45421103       0.00001202      -0.00513987      -0.00728854
Ti       4.65303699       4.41335002       8.89962871       0.00324811      -0.00073138       0.00400535
Ti       2.37695546       1.08478707       9.52719946       0.00462394       0.00016453       0.00037501
Ti       0.05827206       7.17580813       9.72446502       0.00468712      -0.00859793       0.00723563
Ti       2.25737535       3.80373853      10.46178449       0.01765784      -0.00010515       0.00756150
Ti       0.13616056       2.13187683      10.90652375       0.00189980      -0.00559524      -0.00356015
Ti       2.34314564       6.60045943      11.20148167       0.00699008      -0.00706527       0.00430823
Ti       4.17996277       4.76332091      11.87340483      -0.00260928      -0.01129467      -0.00956480
Ti       2.69680262       1.65507482      12.55703706      -0.00198342      -0.00580602       0.00221173
Ti       0.38067034       7.63786825      12.55206466       0.00296832      -0.00061346      -0.01051952
Ti       1.35458100       4.78712985      13.28387865       0.00944273      -0.00274808       0.00368791
Ti       3.17300629       6.51395531      13.93729569      -0.00249644      -0.00462664       0.01194718
Ti       0.56671266       2.22982095      14.11275907      -0.00990397       0.00746595       0.00180694
V        3.17542844       3.78304688      14.62023495      -0.00251038      -0.00110285      -0.00338798
Ti       0.70531076       7.25782980      15.34784638      -0.00394756       0.00133545      -0.00203256
Ti       2.99304373       1.14660175      15.48536954       0.00247083       0.00408579      -0.00493495
Ti       0.74006626       4.47126914      16.09793944      -0.00769070       0.00214718      -0.00511640
Ti       3.02657326       6.13219429      16.59746114      -0.00116888       0.00221054       0.00861711
Ti       0.69407507       1.70353912      17.10314980      -0.00548016       0.00692453       0.00372581
Ti       3.05303573       3.34581678      17.45660522      -0.00592317      -0.00167417      -0.00641279
Ti       0.71586497       6.66070221      18.13094706      -0.00287894       0.00197932      -0.01094805
Ti       3.04554395       0.58388462      18.43123253      -0.00527454       0.01085607       0.00404322
Ti       0.72572952       3.89501136      19.05971894      -0.00260192       0.00507602       0.00126430
Ti       3.04887612       5.58189871      19.41012566      -0.00583918       0.00452772       0.00011689
Ti       0.72686780       1.13096930      20.02884955      -0.00292001       0.01220250      -0.00484866
Ti       3.05480268       2.78174411      20.40900826      -0.00343830      -0.00141816      -0.00587337
Ti       0.70756925       6.11236297      20.94340926      -0.00032688       0.00251581      -0.00110615
Ti       3.08503951       0.02489433      21.36788694      -0.00497553       0.00305378       0.00848574
Ti       0.71974634       3.34541846      22.00627752      -0.00288413       0.00576397       0.00532195
Ti       3.04398044       5.01930952      22.20778149      -0.01508829       0.00416483      -0.00320854
Ti       0.83741033       0.62535938      22.94709998      -0.00956493      -0.00196842       0.00039583
Ti       2.94782559       2.28005274      23.40843464      -0.00304084       0.00941719      -0.00064826
Ti       0.76947295       5.59744470      23.67137684       0.00614993      -0.00030310       0.00297686
Ti       3.58988311       7.39956035      24.32580727      -0.00597085       0.00708795       0.00264372
Ti       0.37383317       2.79627584      25.03576051      -0.00128190      -0.00209343       0.00022807
Ti       2.70369835       4.57016993      25.03970483      -0.00195798       0.00650806      -0.00815025
