100
Lattice="4.4265 -2.555641 0.0 3.767997 6.526363 -0.031456 0.0 0.0 45.781652" Properties=species:S:1:pos:R:3:forces:R:3 job_name=SegregationProfile-CSL13-Al-Al-50-d-0.00 top_level=SegregationProfile solute=Al energy=-770.9636265 stress_kbar_3x3="_JSON [[-36.16917735, -1.64536281, 0.52091467], [-1.64536284, -35.9854303, 1.21095123], [0.52091463, 1.21095124, -17.51130023]]" pbc="T T T"
Ti       2.49392737      -0.87121915       0.02537277      -0.00147674      -0.00482442      -0.00067219
Ti       5.78480566       1.57974750       0.00963503      -0.00398559      -0.00478633      -0.00063154
Ti       5.00993174      -0.78033730       1.38948926      -0.00561106      -0.00620813       0.00218885
Ti       4.60562331       3.80409416       1.37389661      -0.00319866      -0.00983174       0.00206109
Ti       7.11721934       3.88635319       2.62315478      -0.00184736      -0.00362475       0.00584298
Ti       3.82554177       1.43606759       2.63878206      -0.00166457      -0.00373207       0.00472665
Ti       1.67969128      -0.41830150       2.88600526      -0.00297602      -0.00394649       0.00115756
Ti       2.15788121       3.65648556       2.87050553      -0.00172409      -0.00518698       0.00017967
Ti       4.75309071       3.66814457       4.17193177      -0.00421168      -0.00540187      -0.00189854
Ti       4.81887652      -0.72046292       4.18739635      -0.00265882      -0.00681159      -0.00121633
Ti       3.45454614       5.88274083       5.24170307      -0.00146914      -0.00175076       0.00048137
Ti       2.95930768       1.81729059       5.25753267      -0.00037002      -0.00316953       0.00073882
Ti       2.41359555      -0.93913646       5.76858176      -0.00076674      -0.00462827      -0.00232200
Ti       5.76724887       1.47603021       5.75321456      -0.00310474      -0.00277648      -0.00285779
Ti       4.27093981       3.77636562       6.95498315       0.00064971      -0.00237498      -0.00062024
Ti       5.15257449      -1.08410320       6.97101750      -0.00221751      -0.00204445      -0.00137263
Ti       6.92442316       3.59347696       7.83870326       0.00070840      -0.00155571       0.00098242
Ti       3.66988551       1.12327871       7.85460465      -0.00215256       0.00024784       0.00019196
Ti       6.37482113       0.88886630       8.61635684       0.00066730      -0.00223869      -0.00126253
Ti       1.60296928      -0.70496617       8.63178461      -0.00210241      -0.00192223      -0.00040631
Ti       4.79361834       3.17568284       9.67803795       0.00193954       0.00060125       0.00093506
Ti       4.37095836      -0.93188953       9.69599424       0.00017588      -0.00313176       0.00154446
Ti       3.17238406       5.40662020      10.47119609       0.00004471       0.00002053       0.00133905
Ti       2.69019256       1.33230219      10.48710381      -0.00253049      -0.00296905       0.00113367
Ti       5.89344831       5.19106773      11.43904842      -0.00034771      -0.00187888       0.00369232
Ti       5.56908709       1.03088806      11.45547257      -0.00076621      -0.00086801       0.00099658
Ti       0.58815337       0.90711602      12.36683637      -0.00246610      -0.00469251       0.00000430
Ti       3.84903383       3.36764033      12.34816366       0.00181962       0.00200173      -0.00416483
Ti       3.29820482       0.64521609      13.18020474      -0.00477339      -0.00630883       0.00091223
Ti       6.70399309       3.03084157      13.16506853       0.00412700       0.00232934       0.00234479
Ti       5.08216999       5.35476117      14.28316019       0.00031214       0.00429914       0.00505916
Ti       6.11369954       0.40684892      14.29843090      -0.00059146      -0.00226438       0.00633530
Ti       4.53650312       2.62745647      14.95770496       0.00078311       0.00034674      -0.00193000
Ti       4.02476823      -1.43558688      14.97885407      -0.00084142      -0.00409289      -0.00119031
Ti       7.14935794       2.50539001      15.91506196       0.00190754       0.00961410      -0.00381289
Ti       2.61807801       0.77092551      15.92977929       0.00429120      -0.00711906       0.00340230
Ti       5.72445515       4.78480128      17.16723842       0.00732269       0.01000149      -0.00247576
Ti       5.28637365       0.70266675      17.18125296      -0.00227812      -0.00236967       0.00378145
Ti       3.59710101       2.92029674      17.55058481      -0.00138356      -0.00289804      -0.00761187
Ti       0.32925891       0.48587536      17.58367838       0.00274108       0.00302028      -0.00832126
Ti       2.86844846       0.49577750      18.73765404       0.00251132       0.00858994       0.00029321
Ti       6.79867511       2.59048390      18.70717616       0.00856823       0.00950689       0.00385750
Ti       4.89702063       5.19654869      20.02272273       0.00506637       0.00354146       0.00440114
Ti       1.64459913       2.73061602      20.05601631       0.00452145       0.00293780       0.00410869
Ti       4.38884528       2.39689759      20.17545093       0.00437496       0.00211243      -0.00372836
Ti       3.91010020      -1.67858414      20.22003835       0.00381874       0.00653039      -0.01206015
Ti       6.86228899       2.49737762      21.49878336      -0.00574472       0.00635097       0.00703609
Ti       2.78559527       0.54895015      21.51908512       0.01093021       0.00766291      -0.00240507
Ti       3.61865952       2.82796684      22.85975168       0.00611847       0.01427431      -0.00434993
Ti       0.26206874       0.45017348      22.87742853       0.00965685       0.00453806      -0.00222937
Al       5.66520693       4.72673289      22.88507216      -0.00852553       0.00843121       0.00950534
Ti       5.27997243       0.60485983      22.88392166       0.00473170       0.01524380       0.00170007
Ti       2.77561474       0.56983445      24.24858873       0.00740592       0.01011214       0.00349894
Ti       6.87467896       2.48897287      24.23669434      -0.00110814       0.00382576      -0.00314690
Ti       3.89804197      -1.66420897      25.52872972      -0.00328937       0.00489590       0.00827093
Ti       4.39174034       2.42066008      25.54643846       0.00390858       0.00678493       0.00312422
Ti       1.63726167       2.74506452      25.71743598       0.00238832       0.00455822      -0.00056253
Ti       4.89220301       5.21894165      25.72981868       0.00266558       0.00793290       0.00378231
Ti       2.89399535       0.50841484      27.03258620       0.00102162       0.00900727       0.00276415
Ti       6.78158442       2.62394870      27.03594965       0.00552853       0.01254477      -0.00250324
Ti       0.34508102       0.52469236      28.15877653       0.00345378       0.00496817       0.00286633
Ti       3.61021443       2.95275661      28.16389580      -0.00255610      -0.00135359       0.00157404
Ti       5.30891189       0.72872809      28.59449562      -0.00211474      -0.00090200      -0.00200840
Ti       5.72437208       4.82421051      28.57750395       0.00496139       0.01422938       0.00480709
Ti       7.19886825       2.52895069      29.82235473       0.00392284       0.00879717       0.00017917
Ti       2.61505054       0.82813940      29.83742974       0.00094189      -0.00454317      -0.00508368
Ti       4.56969020       2.69170442      30.74849566      -0.00021117       0.00208499      -0.00268313
Ti       4.05735574      -1.37825370      30.76045877       0.00037750      -0.00282210      -0.00482835
Ti       6.12925676       0.46590474      31.47080299       0.00043384      -0.00239797      -0.00542855
Ti       5.12344746       5.40290626      31.45645330       0.00047158       0.00670059      -0.00363128
Ti       3.35598383       0.69585364      32.57120664      -0.00435895      -0.00198054      -0.00014544
Ti       6.71907573       3.10511238      32.55432673       0.00443173       0.00506284      -0.00074086
Ti       3.89921753       3.43772932      33.36212927       0.00124099       0.00133580       0.00612121
Ti       0.62300416       0.98720864      33.37598930      -0.00299436      -0.00413032       0.00197221
Ti       5.93196547       5.26479215      34.30830610       0.00065880      -0.00214859      -0.00059143
Ti       5.61449499       1.10130415      34.32418464      -0.00061901       0.00102497       0.00207705
Ti       3.22849430       5.48145261      35.22317437       0.00047242       0.00206758       0.00045894
Ti       2.72626496       1.41722549      35.24008880      -0.00078667      -0.00163643       0.00056927
Ti       4.80794043       3.26775672      36.04511461       0.00104502       0.00015079      -0.00176149
Ti       4.44311393      -0.87260319      36.05872565      -0.00028773      -0.00395017      -0.00215933
Ti       6.42001803       0.94890995      37.17961723      -0.00034113      -0.00250359      -0.00012175
Ti       1.63245519      -0.63596443      37.19457198      -0.00200653      -0.00311913      -0.00127820
Ti       6.97745341       3.67371948      37.82727290      -0.00053705      -0.00131229      -0.00297650
Ti       3.71287822       1.20935726      37.84368716      -0.00087249      -0.00085165      -0.00205042
Ti       4.36720140       3.79115744      38.79062337      -0.00018268      -0.00330974      -0.00120050
Ti       5.11781489      -0.99377418      38.80593176      -0.00269319      -0.00333063      -0.00146037
Ti       5.76564458       1.51131214      40.06417558      -0.00317480      -0.00384960      -0.00024077
Ti       2.44507088      -0.92241972      40.07948726      -0.00199086      -0.00491954      -0.00100641
Ti       3.47154028       5.92265801      40.42116018      -0.00016716      -0.00209246       0.00073598
Ti       2.98523857       1.85241705      40.43698482      -0.00040596      -0.00260790       0.00110894
Ti       4.70597132       3.70978048      41.59191961      -0.00452883      -0.00668227       0.00267904
Ti       4.87836167      -0.74045524      41.60768164      -0.00329781      -0.00775820       0.00250030
Ti       2.16004148       3.65658425      42.93425309      -0.00139561      -0.00614310      -0.00124234
Ti       1.67873126      -0.41626774      42.95011893      -0.00339552      -0.00429124      -0.00164990
Ti       7.12192785       3.88795741      43.05987763      -0.00199588      -0.00342267      -0.00339767
Ti       3.82477445       1.44087714      43.07573045      -0.00171015      -0.00372394      -0.00279982
Ti       4.63173501       3.78827633      44.37877276      -0.00471081      -0.00923870      -0.00437333
Ti       4.98320568      -0.76558599      44.39455227      -0.00447523      -0.00780066      -0.00427632
Ti       3.50096812       5.99470016      45.73811517      -0.00330884      -0.00479308       0.00028174
Ti       3.03294454       1.91420772      45.75379585      -0.00181533      -0.00526295       0.00058285
