64
Lattice="5.872 0.0 0.0 0.0 6.890708 0.0 0.0 0.0 27.394398" Properties=species:S:1:pos:R:3:forces:R:3 job_name=SegregationProfile-T1g-Al-Al-30-d-0.22 top_level=SegregationProfile solute=Al energy=-491.93853228 stress_kbar_3x3="_JSON [[-9.96877444, 0.00025391, -0.00115252], [0.00025394, -9.47660521, -2.0451062], [-0.00115249, -2.04510619, -20.86961479]]" pbc="T T T"
Ti       4.40402055       5.21139027      27.39108321      -0.00000515      -0.00064957       0.00048059
Ti       1.46797966       5.21181986      27.38997295      -0.00003366      -0.00069876       0.00227410
Ti       5.86958840       3.18652323       1.28802121       0.00066147      -0.00390156       0.00588032
Ti       2.93833420       3.18652215       1.28798301      -0.00053633      -0.00376085       0.00583579
Ti       0.00273956       6.63089521       1.90929157       0.00054266       0.00092271       0.00466762
Ti       2.93322675       6.63088486       1.90926439      -0.00050753       0.00080965       0.00466924
Ti       4.40391350       1.76180014       3.19976200       0.00014981       0.00263007       0.00456769
Ti       1.46804498       1.76459564       3.19977910      -0.00014352       0.00087016       0.00512649
Ti       1.46796699       4.59328949       3.41384643       0.00005208      -0.00222528      -0.00528965
Ti       4.40395226       4.59089521       3.41429518      -0.00002043       0.00444253       0.00886403
Ti       0.00037229       6.71881879       4.73328415       0.00023511       0.00436323       0.00078856
Ti       2.93558227       6.71883375       4.73327689      -0.00019956       0.00425384       0.00074339
Ti       2.93839171       2.87496295       5.34467328       0.00081953       0.00159939      -0.00722443
Ti       5.86958810       2.87497215       5.34463521      -0.00082416       0.00148029      -0.00722596
Ti       4.40400302       4.99918940       6.51207168      -0.00001918       0.00243733      -0.01018247
Ti       1.46798059       5.00173496       6.49986294       0.00006714       0.00446596       0.00556910
Ti       4.40399058       0.93016437       6.97439438       0.00007244       0.00287530      -0.01421989
Ti       1.46802709       0.93480158       6.98380374      -0.00018642       0.00218312      -0.00299770
Ti       2.92524323       3.09110529       8.17022294       0.00304059       0.00597202       0.00105753
Ti       0.01077550       3.09110279       8.17020124      -0.00300753       0.00595121       0.00095428
Ti       2.92784920       6.03140119       8.76720833      -0.00663057       0.00854070       0.00351603
Ti       0.00817609       6.03140699       8.76721331       0.00662866       0.00853445       0.00363293
Ti       4.40401900       1.29986740       9.95294702       0.00006147      -0.00175171       0.00312958
Ti       1.46803129       1.30358726       9.97612287       0.00004025       0.00703941      -0.00811634
Ti       4.40404355       4.12768443      10.37522822      -0.00002372       0.00395115       0.01419504
Ti       1.46798547       4.13097176      10.44045580       0.00011887       0.00427781      -0.00799369
Ti       2.95611875       6.26662647      11.60679411       0.00240659       0.00929348       0.00226714
Ti       5.85200380       6.26666198      11.60683872      -0.00241602       0.00918912       0.00226177
Ti       2.90790588       2.42568290      12.18409206       0.00325654      -0.00158703      -0.00076196
Ti       0.02817057       2.42570999      12.18406142      -0.00329183      -0.00174418      -0.00069773
Al       1.46802347       4.53556807      13.46544961      -0.00008426       0.01236856      -0.01185651
Ti       4.40401299       4.58914540      13.41240445       0.00008019       0.01507142      -0.00515334
Ti       4.40401708       0.56019489      13.76937721      -0.00016129       0.00101415      -0.00417261
Ti       1.46824588       0.42758426      13.74326609      -0.00035368       0.00974943       0.00861432
Ti       0.05718212       2.54634550      14.95599407       0.00208574       0.00710831      -0.00366792
Ti       2.87886112       2.54643843      14.95605078      -0.00203065       0.00697158      -0.00355637
Ti       5.82492323       5.89849731      15.56162608       0.00425837      -0.00923350       0.00127372
Ti       2.98318770       5.89844783      15.56167085      -0.00426585      -0.00924326       0.00147349
Ti       4.40404690       3.87296833      16.89398871       0.00014467      -0.00933068       0.00459752
Ti       1.46792262       3.89109052      16.88990477       0.00010169      -0.00371875       0.00658460
Ti       4.40401837       1.04387460      17.06733926      -0.00001805      -0.00477932      -0.00878274
Ti       1.46798554       1.02964186      17.01671224       0.00008177       0.00956887      -0.00815052
Ti       5.85925081       5.82810532      18.39009223      -0.00757634      -0.00220442       0.00558949
Ti       2.94876419       5.82809565      18.39014254       0.00749213      -0.00213814       0.00553060
Ti       2.92989661       2.76265052      18.99675239      -0.00605549      -0.00803753       0.00390464
Ti       0.00614259       2.76265583      18.99679562       0.00583712      -0.00802268       0.00390610
Ti       4.40400689       0.64798686      20.16693660       0.00006092      -0.00853375       0.00658549
Ti       1.46800123       0.65011045      20.15258433       0.00006752      -0.00322661       0.00679391
Ti       1.46798267       4.71997492      20.63079673       0.00011464      -0.00647744       0.00493336
Ti       4.40401542       4.71450375      20.64229171      -0.00001281      -0.00521485       0.00968949
Ti       2.93422606       2.56692011      21.82045088       0.00168897      -0.00382588       0.00439673
Ti       0.00180273       2.56692691      21.82046900      -0.00175650      -0.00386820       0.00442982
Ti       2.93685214       6.52583736      22.42278152      -0.00043822      -0.00485677      -0.00110794
Ti       5.87117876       6.52583014      22.42280312       0.00038137      -0.00483052      -0.00115481
Ti       4.40400757       4.37071136      23.61242857       0.00002759      -0.00204223      -0.00207399
Ti       1.46801761       4.37161467      23.60764994       0.00002351      -0.00449438      -0.00383263
Ti       4.40400128       1.55473746      24.09133931       0.00004035      -0.00387885      -0.00627436
Ti       1.46800418       1.55668816      24.09027455       0.00006091      -0.00491479      -0.00527955
Ti       2.93464821       6.31774876      25.24854944       0.00125035      -0.00402009      -0.00796440
Ti       0.00138125       6.31775746      25.24855708      -0.00129508      -0.00405847      -0.00800222
Ti       5.87126941       3.27721494      25.86199633      -0.00073845      -0.00414876      -0.00647848
Ti       2.93674528       3.27720717      25.86197887       0.00074191      -0.00411007      -0.00652100
Ti       1.46798592       1.14929647      27.17544977       0.00001941      -0.00569088       0.00077804
Ti       4.40401327       1.14957569      27.17746919      -0.00008008      -0.00671545      -0.00082330
