64
Lattice="5.088765 0.0 0.0 0.0 9.739025 0.0 0.0 0.0 22.303587" Properties=species:S:1:pos:R:3:forces:R:3 job_name=SegregationProfile-T2-Al-Al-38-d-2.12 top_level=SegregationProfile solute=Al energy=-492.13175548 stress_kbar_3x3="_JSON [[-1.73518484, 0.92354476, -1.27867904], [0.92354476, -16.39923423, 3.25745276], [-1.27867905, 3.25745276, -17.78046743]]" pbc="T T T"
Ti       2.53900473       9.26935132       0.01638016       0.00529178      -0.00061633       0.00086598
Ti       5.08204354       4.39861953       0.01789680      -0.00149284      -0.00478224       0.00063247
Ti       1.27091065       1.90893499       0.60495627       0.00048755      -0.00060749       0.00211475
Ti       3.81640963       6.77546002       0.61079887       0.00307905       0.00050728       0.00193675
Ti       2.68666033       4.11935947       1.38562099      -0.00300572       0.00525002      -0.00135334
Ti       0.14373171       8.98269963       1.37168957      -0.00511897       0.00474417       0.00299471
Ti       1.02417989       6.23611639       2.12098741      -0.00169452       0.00210975       0.00494637
Ti       3.56937603       1.37073638       2.12218521       0.00328589       0.00147888       0.00172640
Ti       0.23155498       3.50732503       2.76500610      -0.00335989      -0.00052315       0.00020946
Ti       2.77826397       8.37221450       2.76642383      -0.00118876       0.00095653       0.00022675
Ti       1.10657496       0.86807420       3.49493132      -0.00524056      -0.00443478      -0.00125677
Ti       3.65286711       5.73237931       3.52325589       0.00177349      -0.00309924      -0.00015211
Ti       2.76244178       3.10352749       4.20138382       0.00274830       0.00305103      -0.00216443
Ti       0.22179313       7.96972907       4.18085869      -0.00094064      -0.00140795       0.00130272
Ti       3.62035461       0.42933193       4.85537849       0.00115978       0.00059054      -0.00112817
Ti       1.07713736       5.29106547       4.86191779      -0.00380928       0.00013288       0.00103891
Ti       2.76338530       7.50963920       5.59411147      -0.00445473      -0.00695696      -0.00164384
Ti       0.21473970       2.64405060       5.58247869      -0.00306146       0.00000389      -0.00519403
Ti       3.62317410       4.83786243       6.33227357       0.00155464      -0.00460950      -0.00890315
Ti       1.07572231       9.72316521       6.27626382      -0.00295430      -0.00524272       0.00343954
Ti       0.21669142       7.04497768       6.94074156       0.00106977      -0.00303398      -0.00353447
Ti       2.75146344       2.18452044       6.97760178      -0.00303540       0.00216337      -0.00709558
Ti       1.11203196       4.42152530       7.67452689      -0.00227965      -0.00117841      -0.00828396
Ti       3.66315323       9.30529109       7.66314523      -0.00135483      -0.00259406       0.00405023
Ti       0.25601538       1.77098896       8.36365775       0.00277028      -0.00487880       0.00188705
Ti       2.82182443       6.61882640       8.39097952      -0.00460500      -0.00251189      -0.00055090
Ti       1.05119431       8.75830988       8.97644169      -0.00867858      -0.00377583       0.00911643
Ti       3.58772395       3.86722733       9.11390003      -0.00344461      -0.00692012      -0.00684353
Ti       2.61184983       1.10791914       9.85071383       0.00113497      -0.00465427      -0.00571019
Ti       0.16904163       6.03332335       9.78729328      -0.00879647      -0.00596578      -0.00118849
Ti       3.86965341       8.22519593      10.52571794       0.01039815       0.00200256       0.00511945
Ti       1.26903407       3.37275998      10.55303297      -0.01454296      -0.00704687      -0.00561740
Ti       0.04410520       0.89511350      11.03204363      -0.00695884      -0.00776853      -0.00786402
Ti       2.61336413       5.76087485      11.14902574      -0.00216978       0.00146059      -0.00539273
Ti       3.92321915       3.46534344      11.89177235       0.00237076      -0.00300627      -0.00055876
Ti       1.34099558       8.32555407      11.73600197      -0.00425567       0.00037526      -0.00067881
Ti       2.25937127       1.34218642      12.58091776       0.00211523      -0.00378014       0.00249783
Ti       4.95792680       6.24642304      12.56832330      -0.00398964       0.00169221       0.00017312
Al       1.49675276       4.03490901      13.25832779      -0.01013262      -0.00367139      -0.00187544
Ti       4.05123120       8.96956016      13.21258519       0.00618355       0.00078578       0.00288915
Ti       4.95634211       1.84931093      14.02287386       0.00308927       0.00165878       0.00246435
Ti       2.40388301       6.69151889      13.88261486       0.00073004      -0.00061155      -0.00018930
Ti       1.44803603       9.30437331      14.61685765      -0.00131369       0.00319359       0.00924737
Ti       4.03112553       4.45979239      14.62451289       0.00310985       0.00469329      -0.00187089
Ti       4.84716852       7.12417046      15.31512639       0.00225055       0.00357222       0.00523233
Ti       2.36528353       2.22597238      15.30410075      -0.00230960       0.00474458      -0.00676053
Ti       1.44259950       4.85676925      15.97822596       0.00171028       0.00551138      -0.00544607
Ti       4.00035717       0.00064725      16.01202141       0.00654015       0.00523127       0.00776741
Ti       2.29530090       7.53119177      16.71775660       0.00069589       0.00423980       0.00458451
Ti       4.83435017       2.66450800      16.76705407       0.00671529       0.00515810       0.00068138
Ti       3.99070696       5.31255872      17.42033483       0.00405944       0.00574896       0.00248318
Ti       1.45497440       0.44963113      17.40507142      -0.00117710       0.00538055      -0.00054680
Ti       4.85544506       7.97780818      18.12044879       0.00897831       0.00679996      -0.00033623
Ti       2.30980113       3.11467269      18.12934225       0.00130019       0.00826085      -0.00025617
Ti       1.41355620       5.74412135      18.79090297       0.00150271       0.00367583       0.00074583
Ti       3.95972944       0.86700868      18.80526825       0.00747229       0.00730425       0.00792309
Ti       2.30015235       8.36629909      19.51520887       0.00491154       0.00033599       0.00167147
Ti       4.84586937       3.49630719      19.54545683       0.00191510       0.00173821       0.00068769
Ti       1.47099708       1.32647944      20.17284994      -0.00103830       0.00154127       0.00319594
Ti       4.01558693       6.19395994      20.17620032       0.00185987       0.00099805       0.00130525
Ti       4.87060135       8.90887862      20.89738672       0.00179244      -0.00102134      -0.00045947
Ti       2.32948926       4.04910290      20.90453353       0.00456453      -0.00261230      -0.00452471
Ti       3.80752230       1.87022681      21.67685300       0.00455206      -0.00508155       0.00202128
Ti       1.26849002       6.74487826      21.67150877       0.00323143      -0.00469823       0.00020113
