52
Lattice="4.6568 0.0 0.0 0.0 7.770572 0.0 0.0 0.0 25.044546" Properties=species:S:1:pos:R:3:forces:R:3 job_name=SegregationProfile-CSL7-V-V-34-d-4.60 top_level=SegregationProfile solute=V energy=-401.33326241 stress_kbar_3x3="_JSON [[-19.48449278, 0.42799535, 0.05732157], [0.42799539, -27.0218301, 0.06219864], [0.0573216, 0.06219863, -21.78690148]]" pbc="T T T"
Ti       1.81694728       7.39335967       0.69791644       0.00608129       0.00862389      -0.01638479
Ti       4.62872519       5.59836533       1.36054519       0.00238174       0.00061411      -0.00348545
Ti       2.45641876       2.27308380       1.61252388      -0.00214011       0.00508569      -0.00178629
Ti       4.56772488       0.62187673       2.07423662      -0.00279179       0.00667810      -0.00138386
Ti       2.35415388       5.00847166       2.82367894       0.00313506       0.00201498      -0.00138114
Ti       0.02184683       3.33484971       3.01006747       0.00155887       0.00133086      -0.00141596
Ti       2.30823973       0.01067370       3.64537904       0.00085697       0.00177391      -0.00136737
Ti       0.02654985       6.10402594       4.08765378       0.00128902       0.00124934       0.00405736
Ti       2.33762183       2.76497219       4.59925409       0.00240654       0.00227097       0.00015365
Ti       0.00150011       1.11677746       4.99197056       0.00258697      -0.00022531       0.00186472
Ti       2.34399174       5.56971871       5.61581580       0.00060361      -0.00014748       0.00250725
Ti       0.00591649       3.87414197       5.94629918       0.00150721      -0.00015032       0.00139855
Ti       2.33383577       0.56597405       6.57840102       0.00132955      -0.00018862       0.00251910
Ti       0.01533221       6.64275364       6.91284681       0.00122610      -0.00140342       0.00034159
Ti       2.32989750       3.32430538       7.53252681       0.00190367      -0.00187203       0.00225053
Ti       0.00979704       1.67574404       7.92627687       0.00180792       0.00039232       0.00265198
Ti       2.35523207       6.10554394       8.44294784       0.00095309       0.00013179       0.00048312
Ti       4.63597617       4.42673522       8.87611781       0.00189667      -0.00088331       0.00492518
Ti       2.34716420       1.10552920       9.51466533      -0.00063359       0.00332640       0.00455186
Ti       0.02539655       7.20195301       9.70790743       0.00205685       0.00256112       0.00426311
Ti       2.23349698       3.81986040      10.45674629      -0.00417769      -0.00392683       0.00811778
Ti       0.12240647       2.17026533      10.92108718      -0.00366410       0.00199637       0.00112351
Ti       2.29768924       6.61050786      11.17680458      -0.00191162       0.00163745       0.00617804
Ti       4.16301257       4.83693659      11.81282603       0.00147741      -0.00287470       0.00891269
Ti       2.68966691       1.63856420      12.52055103       0.00243556       0.00195565       0.00138644
Ti       0.37517464       7.64928420      12.54295712      -0.00117810      -0.00046370       0.00319163
Ti       1.26735031       4.82494272      13.27092798      -0.00728902      -0.00240331      -0.00170634
Ti       3.11200864       6.64472892      13.91383530       0.00365436      -0.00546422      -0.00320822
Ti       0.61264273       2.15000829      14.15174208       0.00634581       0.00112073      -0.00367371
Ti       3.19951465       3.82445220      14.58272189       0.00630593      -0.01429561       0.00769445
Ti       0.72852730       7.25120958      15.41225299      -0.00580552       0.00284228      -0.00521477
Ti       3.04758521       1.13158102      15.60175853       0.00378089      -0.00356153      -0.00534082
Ti       0.78532007       4.36997827      16.17871262       0.00189312      -0.00188536       0.00374011
Ti       3.04871862       6.04018855      16.60542808       0.00030684       0.00141794       0.00182649
V        0.74990023       1.69583317      17.10828113      -0.00285184      -0.00415449       0.00373798
Ti       3.08140432       3.26411351      17.52171047      -0.00055078       0.00017084       0.00074333
Ti       0.72763551       6.64858572      18.11872849      -0.00125635      -0.00948611       0.00231452
Ti       3.07142824       0.58292789      18.41142128      -0.00376907      -0.00768476      -0.00556001
Ti       0.74316347       3.85922240      19.07645248      -0.00124334       0.00203155       0.00638177
Ti       3.05812718       5.56720476      19.41592782      -0.00197450      -0.00163527       0.00281921
Ti       0.75055542       1.13631247      19.99561616      -0.00227982      -0.00423573      -0.00491970
Ti       3.07275790       2.77103941      20.46443709      -0.00228953       0.00002328      -0.00434256
Ti       0.72249038       6.10196936      20.93069787      -0.00366694       0.00827647      -0.00198687
Ti       3.10437084       0.01607759      21.36428182      -0.00258071       0.00014665      -0.00195680
Ti       0.73425733       3.33247804      22.02050760      -0.00218609       0.00508194      -0.00657122
Ti       3.05605254       5.01764986      22.20857777      -0.00302418      -0.00464818      -0.00361418
Ti       0.84247909       0.62470411      22.93439565       0.00446198       0.00902904      -0.00975823
Ti       2.94855595       2.27613147      23.43338736       0.00171135       0.00174407      -0.00605606
Ti       0.77837037       5.59896689      23.66633430       0.00196760      -0.00118226       0.00388467
Ti       3.59510257       7.39308598      24.32252965      -0.01051129       0.00065896       0.00247302
Ti       0.37712792       2.79528358      25.03875580      -0.00119032      -0.00259412      -0.00373568
Ti       2.70172922       4.56769293      25.04019695       0.00104426       0.00117997      -0.00164362
