52
Lattice="4.6568 0.0 0.0 0.0 7.770572 0.0 0.0 0.0 25.044546" Properties=species:S:1:pos:R:3:forces:R:3 job_name=SegregationProfile-CSL7-Al-Al-27-d-1.36 top_level=SegregationProfile solute=Al energy=-397.46560703 stress_kbar_3x3="_JSON [[-15.09505457, 2.12354884, 1.1819041], [2.12354881, -21.22875952, -4.20714328], [1.18190411, -4.20714328, -23.36408213]]" pbc="T T T"
Ti       1.81884942       7.40096520       0.70435982       0.00004564      -0.00561302      -0.00031596
Ti       4.63600133       5.60027342       1.36273187      -0.00164103      -0.00903343      -0.00149608
Ti       2.45956761       2.28324443       1.62389682      -0.00358397       0.00176976       0.00110741
Ti       4.56688430       0.62543827       2.08476992      -0.00216150       0.00174945      -0.00406287
Ti       2.36108164       5.01646536       2.83327010       0.00192575       0.00644124      -0.00392104
Ti       0.02872236       3.34321326       3.02314358      -0.00422078       0.00191798       0.00122105
Ti       2.31045346       0.01949969       3.66090584      -0.00205349       0.01000328      -0.00629836
Ti       0.02817739       6.11180562       4.09766558       0.00046715       0.00465038       0.00331848
Ti       2.34050731       2.77630388       4.61719672      -0.00063349       0.01157315      -0.00276076
Ti      -0.00014786       1.12641081       5.00502893       0.00033124       0.01284137      -0.00651249
Ti       2.34167655       5.57966929       5.63172138       0.00371660       0.00733899       0.00165366
Ti       0.00058716       3.88426426       5.96459089      -0.00055540       0.00755621      -0.00074197
Ti       2.33200989       0.58019797       6.59716480      -0.00245311       0.01617819      -0.00144731
Ti       0.00570285       6.65944186       6.92826344       0.00239375       0.01153537       0.00256682
Ti       2.31997577       3.34613238       7.56222454      -0.00463517       0.01533153       0.00246887
Ti       0.01177957       1.69249432       7.94250009      -0.00110804       0.00946745       0.00446124
Ti       2.33380215       6.13985317       8.45888158       0.00246883       0.00434248      -0.00001173
Ti       4.61514084       4.45553542       8.89445619      -0.00624914       0.00973209       0.00204822
Ti       2.33767554       1.14286588       9.55899945      -0.00705712       0.00893394      -0.00624513
Ti       0.00310817       7.24926864       9.74405229       0.00198864      -0.00727029       0.00457176
Ti       2.21153249       3.87421080      10.50695091      -0.00805046       0.00118439      -0.00660019
Ti       0.12460235       2.24327385      10.92514437       0.00410524       0.00316403       0.00720656
Ti       2.29878099       6.62677203      11.15011719       0.00410508       0.00309338      -0.00978461
Ti       4.23307608       4.94396199      11.77468872      -0.00142882      -0.00817037      -0.00628393
Ti       2.79564201       1.68442468      12.54325509      -0.00562733      -0.00217902      -0.00010113
Ti       0.57112146       7.75232967      12.56204772       0.00391029      -0.00561458       0.00905362
Ti       1.12730858       4.83036029      13.36280299      -0.00017357      -0.00105457       0.00015420
Al       3.07947783       6.67034894      13.76632959       0.00422270      -0.00520141      -0.00006932
Ti       0.63500746       2.20214031      14.13788645      -0.00971752      -0.00084652       0.00281397
Ti       3.20861887       3.89268076      14.56538777       0.00451934       0.01378694      -0.00145819
Ti       0.74584900       7.10034146      15.29789278       0.00327694      -0.01175772       0.00320873
Ti       3.02378489       1.10750251      15.44870036       0.00275515      -0.00510936      -0.00635188
Ti       0.77730451       4.33984547      16.24210101       0.00390126      -0.00604772       0.00937596
Ti       3.06255075       6.03977257      16.52760478       0.00149320       0.00046976      -0.00670798
Ti       0.70786016       1.60464426      17.11087853       0.00376503      -0.00463080       0.00005437
Ti       3.06832750       3.25349932      17.50711541       0.00432667       0.00272364       0.00202759
Ti       0.73406986       6.57749217      18.09386222       0.00011114       0.00987893      -0.00046295
Ti       3.05782182       0.50038835      18.43074334       0.00757579       0.00500644      -0.00562685
Ti       0.73658660       3.80034695      19.11460017       0.01009340      -0.00557255      -0.00382402
Ti       3.05058101       5.51120563      19.38203608       0.00471750      -0.00001396       0.00105250
Ti       0.74166300       1.07127468      20.03361563       0.00260856      -0.00498662       0.00239474
Ti       3.06160608       2.71411933      20.44017598       0.00477775      -0.00419609      -0.00659936
Ti       0.71779423       6.06896786      20.92345372      -0.00045250      -0.00445666       0.00344130
Ti       3.09719167      -0.03068511      21.37775688      -0.00181769      -0.00160200       0.00513652
Ti       0.72287979       3.31086984      22.02223017      -0.00077306      -0.01675454      -0.00027677
Ti       3.04541280       4.97906691      22.18887106      -0.00363923      -0.00605197       0.00923770
Ti       0.83841719       0.61117087      22.94457063      -0.00126092      -0.00870006       0.00572919
Ti       2.94416784       2.26331327      23.42848490      -0.00406495      -0.01310539       0.00468342
Ti       0.77522043       5.59467719      23.66276141      -0.00032830      -0.01662526      -0.00400707
Ti       3.59304643       7.38708978      24.32948226      -0.00410491      -0.01232156      -0.00199612
Ti       0.37756928       2.79916351      -0.00106328      -0.00383984      -0.00738358       0.00448136
Ti       2.70446253       4.57272938      25.03676764      -0.00197133      -0.00637133       0.00049481
