52
Lattice="5.088765 0.0 0.0 0.0 5.495746 0.0 0.0 0.0 32.722931" Properties=species:S:1:pos:R:3:forces:R:3 job_name=SegregationProfile-C1-Al-Al-25-d-0.00 top_level=SegregationProfile solute=Al energy=-398.91855356 stress_kbar_3x3="_JSON [[-39.10284261, -3.02145377, 0.00259309], [-3.02145379, -26.34070452, 0.00774664], [0.00259307, 0.00774667, -18.31474846]]" pbc="T T T"
Ti       2.62666119       0.79368260       0.00035056      -0.00459256       0.00207904      -0.00019062
Ti       0.02829185       1.59845338       1.37980999      -0.00159777       0.00008088       0.00151172
Ti       0.81344870       4.34837352       1.37758921      -0.00001313       0.00096150      -0.00144757
Ti       2.56904930       2.35873919       2.59094676       0.00082756      -0.00369987       0.00029756
Ti       3.36267078       5.10618983       2.59359228       0.00151740       0.00363739       0.00203123
Ti       0.81334760       0.38861974       3.83706978       0.00652038       0.00407113      -0.00199832
Ti       0.03620665       3.13663642       3.83744671       0.00573033      -0.00065162      -0.00245906
Ti       3.37200228       1.18235540       5.07485605       0.00155190       0.00248471      -0.00121906
Ti       2.56395795       3.92853211       5.08475546      -0.00148282       0.00055352      -0.00938823
Ti       0.01687954       4.70252366       6.31973154      -0.00227346       0.00381932       0.00677383
Ti       0.83334678       1.95511496       6.32346888      -0.00074178      -0.00142211      -0.00056793
Ti       3.38297998       2.74466766       7.56952364       0.00210309      -0.00476287       0.00019703
Ti       2.57781146       5.49149356       7.56860714       0.00020783       0.00527904       0.00385755
Ti       0.84051159       3.54779784       8.80448917      -0.00431223      -0.00623202       0.00169112
Ti       0.02202240       0.79482486       8.82536771       0.00001362       0.00566589      -0.00437488
Ti       2.56283731       1.57068399      10.05170564       0.00122029      -0.00409970       0.00058998
Ti       3.38519996       4.32385452      10.06526290       0.00310688       0.00390608      -0.00045834
Ti       0.83429641       5.09545934      11.31424341      -0.00342083       0.00248338       0.00055100
Ti       0.05506069       2.36528425      11.29251830      -0.00246043      -0.00706829      -0.00588730
Ti       3.37735528       0.41315785      12.54473525       0.00080662      -0.00252652      -0.00342663
Ti       2.60656777       3.15795439      12.56276382      -0.01061416      -0.00266276       0.00292543
Ti      -0.00039116       3.95163632      13.78266249       0.00283389       0.00387084       0.00400112
Ti       0.83073601       1.15401884      13.78696178      -0.00464996      -0.00593126      -0.00514771
Ti       2.53604903       4.62602651      14.95601407       0.00469813       0.00432276       0.00463905
Ti       3.28284486       1.86105388      14.99971821       0.00847775       0.00130230       0.01586868
Al       0.73300697       2.76420082      16.36133783      -0.00112345       0.00469300       0.00159951
Ti       0.12044234       0.03150405      16.36131674      -0.00989059      -0.01069396       0.00172712
Ti       3.28306459       1.86100583      17.72282878       0.00735201       0.00390140      -0.01229479
Ti       2.53612176       4.62636464      17.76638362       0.00532235       0.00135750      -0.00024895
Ti      -0.00019096       3.95177890      18.94018011       0.00224955       0.00435525      -0.00426125
Ti       0.83079828       1.15415227      18.93582027      -0.00419022      -0.00613141       0.00442700
Ti       3.37736303       0.41338671      20.17808131       0.00118101      -0.00354869       0.00169192
Ti       2.60663755       3.15814899      20.16034795      -0.01080529      -0.00195702      -0.00727755
Ti       0.83428524       5.09571176      21.40874299      -0.00323615       0.00299939      -0.00227865
Ti       0.05514099       2.36568247      21.43033988      -0.00287376      -0.00878228       0.00470458
Ti       2.56293747       1.57096988      22.67121931       0.00151330      -0.00433648      -0.00040865
Ti       3.38523277       4.32414702      22.65757346       0.00326905       0.00391986       0.00182933
Ti       0.02209531       0.79500892      23.89743433      -0.00042466       0.00661833       0.00750459
Ti       0.84056666       3.54804730      23.91822153      -0.00470660      -0.00642639       0.00147091
Ti       3.38294655       2.74497795      25.15336327       0.00236724      -0.00496579       0.00179622
Ti       2.57779195       5.49172638      25.15420484       0.00056861       0.00588656      -0.00122159
Ti       0.83336289       1.95546342      26.39955821      -0.00049203      -0.00124126       0.00037919
Ti       0.01691368       4.70286682      26.40327662      -0.00215393       0.00356927      -0.00743167
Ti       2.56404272       3.92885702      27.63841741      -0.00165746       0.00007054       0.00662677
Ti       3.37203598       1.18265229      27.64819625       0.00122378       0.00243444      -0.00120756
Ti       0.81331577       0.38893733      28.88614679       0.00650118       0.00358899      -0.00163357
Ti       0.03622165       3.13696720      28.88584200       0.00580063      -0.00133724      -0.00109340
Ti       2.56892380       2.35896972      30.13201262       0.00178921      -0.00320473      -0.00131334
Ti       3.36281451       5.10645010      30.12948256       0.00075871       0.00393284      -0.00301849
Ti       0.81346420       4.34868982      31.34539132       0.00017849       0.00143618       0.00218972
Ti       0.02858142       1.59881714      31.34324982      -0.00183452       0.00032333      -0.00048948
Ti       3.32051285       3.54203147       0.00011441      -0.00014300      -0.00192235      -0.00013756
