64
Lattice="5.872 0.0 0.0 0.0 6.890708 0.0 0.0 0.0 27.394398" Properties=species:S:1:pos:R:3:forces:R:3 job_name=SegregationProfile-T1g-V-V-44-d-5.32 top_level=SegregationProfile solute=V energy=-495.94102986 stress_kbar_3x3="_JSON [[-11.98761946, 0.00453572, -0.00809378], [0.00453572, -11.76583202, -3.02128206], [-0.00809374, -3.02128208, -22.51240408]]" pbc="T T T"
Ti       4.40660678       5.10519853       0.09638855      -0.00553123      -0.00074642      -0.01402563
Ti       1.46552112       5.10521551       0.09633876       0.00541408      -0.00058186      -0.01402639
Ti       0.00003285       3.00671179       1.25494204       0.00001905       0.00145361      -0.00267440
Ti       2.93606520       3.00794543       1.26850985       0.00005725      -0.00260323       0.00202087
Ti       0.00004175       6.76132493       1.88104895      -0.00006740      -0.01106269      -0.00128351
Ti       2.93612654       6.75849209       1.88056282       0.00006702      -0.00866397       0.00299202
Ti       4.41301923       1.82956605       3.31684701      -0.00570195      -0.00606964       0.00317127
Ti       1.45908679       1.82958218       3.31670940       0.00558349      -0.00631670       0.00337412
Ti       1.46596013       4.66512732       3.28510864       0.00276136      -0.00968359      -0.00419469
Ti       4.40613488       4.66512408       3.28511369      -0.00269162      -0.00979292      -0.00402476
Ti       0.00001779       6.75184676       4.71517114       0.00003874      -0.01018065      -0.00472955
Ti       2.93602904       6.75393334       4.71431460      -0.00004384      -0.01412494      -0.00909978
Ti       2.93597720       3.06868764       5.33216212      -0.00004885       0.00792913      -0.01438389
Ti       0.00005616       3.07102099       5.33803407       0.00001003       0.01121044      -0.00437754
Ti       4.40071652       5.15774453       6.52150445       0.00752330       0.00364085       0.01194616
Ti       1.47126972       5.15778585       6.52146007      -0.00742905       0.00352623       0.01193525
Ti       4.40386624       1.08530927       6.91976886      -0.00079363       0.00153108      -0.00806155
Ti       1.46812994       1.08526781       6.91978097       0.00081527       0.00167217      -0.00801243
Ti       2.93595988       3.24324804       8.14770309       0.00003319       0.00574835       0.01181966
Ti       0.00000692       3.24364139       8.15182765       0.00005683       0.00731887      -0.00297819
Ti       2.93601231       6.19696888       8.75401258       0.00007790       0.00533808       0.00333467
Ti      -0.00002779       6.19765026       8.75209992      -0.00001312       0.00604046       0.00897245
Ti       4.40553099       1.46684335       9.91285321       0.00112659       0.00896917       0.00569586
Ti       1.46647650       1.46681233       9.91282416      -0.00102902       0.00901784       0.00570311
Ti       4.40461645       4.28756488      10.42351542       0.00511430       0.00493623       0.00123777
Ti       1.46735956       4.28757299      10.42337865      -0.00490441       0.00480427       0.00106004
Ti       2.93596287       6.45787119      11.59085302      -0.00001606       0.00371496       0.00271946
Ti       0.00011426       6.46227667      11.58858842       0.00006681       0.00768070       0.00575880
Ti       2.93609436       2.49115131      12.18169169      -0.00001187       0.00011251       0.00778076
Ti       0.00000379       2.49141015      12.20015874       0.00011757      -0.00397007       0.00912902
Ti       1.46500981       4.66138401      13.37677717       0.00133613       0.00775782       0.00300608
Ti       4.40714439       4.66117634      13.37711617      -0.00144458       0.00796178       0.00316794
Ti       4.41013845       0.60080617      13.86311919       0.00648301      -0.00274645       0.00376301
Ti       1.46195710       0.60086005      13.86311938      -0.00653099      -0.00209146       0.00367156
Ti      -0.00040726       2.74000844      15.04092962      -0.00033587      -0.00768297       0.00477356
Ti       2.93651901       2.73173780      15.01011120       0.00024632      -0.01373733       0.00910091
Ti       0.00087633       5.79066218      15.63295099       0.00042596       0.00541797      -0.00082770
Ti       2.93518356       5.77853737      15.60931657      -0.00067624       0.01051754       0.00002794
Ti       4.37006601       3.84931919      17.18236375      -0.00504564       0.01300842       0.00247769
Ti       1.50256988       3.84735649      17.18410430       0.00527212       0.01133837       0.00328181
Ti       4.39081450       1.02702714      16.97776955      -0.00623120      -0.00618776      -0.00148319
Ti       1.48107003       1.02700897      16.97875862       0.00615821      -0.00624483      -0.00089715
Ti       0.00174098       5.89308698      18.42687185       0.00093534      -0.00000575      -0.01883863
Ti       2.93433458       5.88227488      18.39295784      -0.00100296       0.00485209       0.00190394
V        2.94279903       2.51051581      19.00797957       0.00342997      -0.01744863       0.00242731
Ti       5.86584883       2.52344928      19.05361590      -0.00326157      -0.01010419       0.00658477
Ti       4.35784013       0.51429201      20.21443607       0.00571910      -0.00420017       0.00618585
Ti       1.51370795       0.51731250      20.21383250      -0.00536024      -0.00224773       0.00681605
Ti       1.48036484       4.52688207      20.51258472       0.00045256      -0.00067550       0.00131373
Ti       4.39147875       4.52792538      20.51280588      -0.00083654      -0.00026813       0.00085152
Ti       2.93646590       2.40241705      21.78506711       0.00019593       0.00375977      -0.00956784
Ti      -0.00083215       2.42839676      21.83901821      -0.00001461      -0.00439389       0.00411911
Ti       2.93496491       6.32684198      22.41277071      -0.00081273       0.00351109      -0.00515546
Ti       0.00061395       6.31091901      22.38417670       0.00061279       0.00142168       0.00109152
Ti       4.39894473       4.19140362      23.56061618       0.00521937       0.00450508      -0.00255384
Ti       1.47275825       4.19117260      23.56048751      -0.00513281       0.00477375      -0.00241727
Ti       4.39680906       1.37032499      24.07001203      -0.00501282      -0.00513424      -0.00711702
Ti       1.47496011       1.37048707      24.07022642       0.00499329      -0.00529217      -0.00734693
Ti       2.93606590       6.10791651      25.24777781      -0.00043059      -0.00048279      -0.00630268
Ti      -0.00002577       6.11017999      25.22444749       0.00016173       0.01000829      -0.00157867
Ti      -0.00003214       3.17798039      25.82929525      -0.00017028      -0.00118009      -0.00472161
Ti       2.93600894       3.17826332      25.84549355       0.00008040       0.00306810      -0.00090180
Ti       1.46657654       1.02958168      27.05010274      -0.00409577      -0.00634416      -0.00082392
Ti       4.40554278       1.02944582      27.04998018       0.00407247      -0.00628180      -0.00080954
