64
Lattice="5.871999 0.0 0.0 0.0 6.890708 0.0 0.0 0.0 27.401158" Properties=species:S:1:pos:R:3:forces:R:3 job_name=SegregationProfile-T1m-V-V-32-d-0.00 top_level=SegregationProfile solute=V energy=-496.08248612 stress_kbar_3x3="_JSON [[-11.43948441, 0.00039228, -0.00016915], [0.0003923, -13.74764282, 0.00238743], [-0.00016913, 0.00238741, -21.4928679]]" pbc="T T T"
Ti       2.93599994       0.10341958      27.40107764       0.00007635      -0.00736271       0.00065840
Ti       2.93602690       2.93925471      -0.00003128      -0.00002502       0.00581940       0.00044661
Ti       0.00002196       0.10319202      27.40107338      -0.00003183      -0.00642804       0.00077513
Ti       0.00002368       2.94012870      -0.00002575       0.00001532       0.00491060       0.00041084
Ti       4.40337665       5.03024837       1.41281307       0.00096071       0.00125373      -0.00261673
Ti       1.46866181       5.03024954       1.41281857      -0.00094933       0.00128478      -0.00268093
Ti       4.40375440       1.31953171       2.02957834       0.00081611      -0.00284778       0.00346894
Ti       1.46829145       1.31952967       2.02956249      -0.00090483      -0.00265710       0.00420750
Ti       2.93602605       3.41275600       3.21098091      -0.00013893       0.00222687       0.00412864
Ti       0.00000337       3.41381259       3.20869839       0.00028424      -0.00190326       0.00410954
Ti       2.93603248       6.22844414       3.62214004      -0.00003219       0.00237468       0.00425409
Ti       0.00002776       6.22976317       3.62398423       0.00007704       0.00186125       0.00172918
Ti       1.46649817       1.49682153       4.84473050       0.00186310      -0.00036756       0.00492097
Ti       4.40555001       1.49682578       4.84471718      -0.00191429      -0.00050703       0.00559317
Ti       1.46699479       4.43760134       5.44991545       0.00277432       0.00370994       0.00735169
Ti       4.40506859       4.43759281       5.44989935      -0.00292831       0.00392984       0.00788575
Ti       2.93599533       6.59829770       6.60667752       0.00032354       0.00013739       0.00648107
Ti       0.00001484       6.59966265       6.61101455      -0.00017098       0.00181939       0.00493325
Ti       2.93602451       2.52793982       7.11497878       0.00007935       0.00520341       0.01093091
Ti       0.00002743       2.52417151       7.12016525      -0.00010478       0.00405326       0.00676864
Ti       4.40457690       4.69144543       8.28958322       0.00352190       0.00095713       0.00531185
Ti       1.46744987       4.69143032       8.28956832      -0.00353636       0.00113021       0.00579555
Ti       4.40191832       0.72587369       8.88368530       0.00098816      -0.00036361       0.00356603
Ti       1.47010892       0.72588402       8.88364969      -0.00094866      -0.00023621       0.00415171
Ti      -0.00002478       2.87800713      10.10653414       0.00028546       0.00562656       0.00278191
Ti       2.93602744       2.89823163      10.07885892      -0.00030072      -0.00196020       0.00335539
Ti      -0.00001855       5.71330770      10.52344514       0.00030513       0.00001149       0.00298466
Ti       2.93603187       5.71633561      10.54974588      -0.00032270      -0.00466354       0.00135358
Ti       1.52486925       0.94269605      11.73500732      -0.00135619      -0.00491229       0.00271697
Ti       4.34712271       0.94270451      11.73500561       0.00145989      -0.00477896       0.00314139
Ti       1.49369273       4.02963817      12.29591312       0.00713983       0.00020825      -0.00853807
Ti       4.37830037       4.02963434      12.29586752      -0.00706029       0.00004214      -0.00782256
V        2.93599929       2.19062921      13.70060285      -0.00002928      -0.01459699      -0.00039023
Ti       0.00000419       2.07326699      13.70059927      -0.00003519      -0.01620736      -0.00038098
Ti       2.93599632       6.18102886      13.70061716      -0.00003119       0.00476805      -0.00032803
Ti       5.87198868       6.09710775      13.70061507       0.00004907       0.00816247      -0.00025800
Ti       4.37831402       4.02964018      15.10529168      -0.00714752      -0.00002739       0.00761224
Ti       1.49369045       4.02963585      15.10530515       0.00715954       0.00011658       0.00778577
Ti       4.34712479       0.94270009      15.66617432       0.00147353      -0.00454185      -0.00326294
Ti       1.52486963       0.94270354      15.66618005      -0.00145764      -0.00462718      -0.00322074
Ti       2.93601656       5.71637061      16.85138723      -0.00002992      -0.00478995      -0.00141903
Ti       5.87199537       5.71334248      16.87769217       0.00007296      -0.00015519      -0.00314072
Ti       2.93600149       2.89825449      17.32226854       0.00000328      -0.00211577      -0.00309560
Ti      -0.00000133       2.87802871      17.29460302       0.00003646       0.00560454      -0.00255484
Ti       4.40192812       0.72586615      18.51740766       0.00089241       0.00005559      -0.00334014
Ti       1.47010834       0.72587886      18.51743196      -0.00087743      -0.00005807      -0.00328667
Ti       4.40457344       4.69152033      19.11150261       0.00361106       0.00060828      -0.00502672
Ti       1.46745757       4.69151024      19.11151012      -0.00356930       0.00055107      -0.00490584
Ti       0.00002201       2.52418458      20.28096236       0.00019338       0.00433828      -0.00650950
Ti       2.93605230       2.52796534      20.28613375      -0.00022050       0.00521665      -0.01053395
Ti       0.00001063       6.59970007      20.79013887       0.00022787       0.00180467      -0.00487421
Ti       2.93604364       6.59831515      20.79448255      -0.00029690       0.00039785      -0.00643930
Ti       1.46699868       4.43765100      21.95130757       0.00270869       0.00357437      -0.00828060
Ti       4.40505324       4.43765749      21.95128362      -0.00271003       0.00332617      -0.00785962
Ti       1.46649829       1.49682033      22.55653972       0.00212395      -0.00031240      -0.00646632
Ti       4.40557280       1.49681806      22.55651984      -0.00207519      -0.00016635      -0.00582489
Ti       2.93603489       6.22847519      23.77910060       0.00003194       0.00261477      -0.00489663
Ti       0.00003337       6.22979259      23.77724302      -0.00005360       0.00170145      -0.00225794
Ti       2.93600487       3.41279238      24.19026267       0.00024808       0.00194678      -0.00455273
Ti       0.00001660       3.41385798      24.19253803      -0.00043512      -0.00193525      -0.00459184
Ti       4.40375346       1.31954657      25.37158879       0.00073613      -0.00247343      -0.00392153
Ti       1.46826766       1.31957226      25.37157974      -0.00079129      -0.00280249      -0.00342760
Ti       4.40339235       5.03026882      25.98828600       0.00081821       0.00123678       0.00347471
Ti       1.46866365       5.03025854      25.98826724      -0.00087153       0.00121332       0.00361937
