64
Lattice="5.872 0.0 0.0 0.0 6.890708 0.0 0.0 0.0 27.394398" Properties=species:S:1:pos:R:3:forces:R:3 job_name=SegregationProfile-T1g-V-V-32-d-0.00 top_level=SegregationProfile solute=V energy=-496.05640116 stress_kbar_3x3="_JSON [[-11.6423683, -0.0003482, -0.0006165], [-0.0003482, -13.61440068, 4.15989123], [-0.00061651, 4.15989124, -21.07441399]]" pbc="T T T"
Ti       4.40399365       5.21770004      27.38858496      -0.00004729       0.00203616       0.00112838
Ti       1.46798036       5.21731713      27.38982612       0.00002088       0.00264071      -0.00271773
Ti       5.87092233       3.19323645       1.29166852      -0.00057507       0.00427979      -0.00092106
Ti       2.93695994       3.19324590       1.29168888       0.00075772       0.00417718      -0.00080428
Ti      -0.00000300       6.63295990       1.91199645      -0.00039644      -0.00386449       0.00192395
Ti       2.93600312       6.63295411       1.91199920       0.00039547      -0.00387551       0.00196710
Ti       4.40399468       1.76835127       3.20529024      -0.00001765      -0.00376038      -0.00441140
Ti       1.46797050       1.76880986       3.20592683      -0.00004469      -0.00016406      -0.00954714
Ti       1.46798879       4.59451120       3.42244968      -0.00002250      -0.00503601       0.00137193
Ti       4.40400948       4.59282291       3.42335571      -0.00005923      -0.00423473      -0.00310106
Ti      -0.00043277       6.72400899       4.73450112       0.00302470      -0.00191193       0.00291357
Ti       2.93639638       6.72400588       4.73452415      -0.00302134      -0.00195538       0.00283778
Ti       2.93684546       2.86920619       5.35141342      -0.00168851      -0.01146776      -0.00218349
Ti       5.87115225       2.86921867       5.35144547       0.00169441      -0.01160982      -0.00236593
Ti       4.40399874       4.99840939       6.50723625       0.00004429      -0.00866085      -0.00540569
Ti       1.46797691       4.99981336       6.50811485      -0.00005334      -0.01272364      -0.00382933
Ti       4.40399659       0.92348683       6.98857148       0.00003547      -0.00989890      -0.00425744
Ti       1.46798819       0.91920126       6.98996826      -0.00006465      -0.00399905       0.00051236
Ti       2.93349493       3.07478083       8.17757609      -0.00145612      -0.00712211      -0.00085971
Ti       0.00248352       3.07479459       8.17761066       0.00148488      -0.00710511      -0.00090623
Ti       2.93715518       5.99729220       8.77296991      -0.00031008      -0.01272861      -0.00240952
Ti      -0.00118434       5.99727544       8.77310336       0.00032450      -0.01273464      -0.00251272
Ti       4.40398768       1.26130405       9.95170734      -0.00002212      -0.00611902      -0.00143057
Ti       1.46800821       1.24676520       9.97845676      -0.00000204      -0.00822172      -0.00500406
Ti       4.40406151       4.06938741      10.44251516      -0.00015535      -0.00961481       0.00154039
Ti       1.46795663       4.07307711      10.42192486       0.00009864      -0.00623802       0.00390159
Ti       2.98801775       6.18407922      11.61335805       0.00059266      -0.00459112      -0.00078776
Ti       5.82001449       6.18412708      11.61357845      -0.00045987      -0.00460273      -0.00074649
Ti       2.96259276       2.34028361      12.17551910      -0.00913293      -0.00490526      -0.01025708
Ti       5.84541897       2.34025496      12.17548826       0.00919079      -0.00505407      -0.00969910
Ti       1.46802072       4.39973215      13.55412663      -0.00000994      -0.00270629       0.00936221
Ti       4.40399343       4.48597328      13.54756396       0.00001302      -0.01046165       0.00585052
V        4.40381620       0.48384293      13.59939649      -0.00002496       0.00042139       0.00336211
Ti       1.46826110       0.37883944      13.60710419      -0.00016676      -0.01441505      -0.00211380
Ti       5.83546188       2.32209074      14.97800293       0.01195566       0.00012778       0.00254597
Ti       2.97261497       2.32213327      14.97800893      -0.01197206       0.00042335       0.00296785
Ti       5.81683055       6.06648798      15.53448901      -0.00516318       0.00382737       0.00837535
Ti       2.99121335       6.06641114      15.53466045       0.00534614       0.00383442       0.00864313
Ti       4.40408092       3.95445216      16.74927696       0.00002086      -0.00028391      -0.01320006
Ti       1.46800009       3.94631313      16.77493662       0.00000341       0.01013356      -0.00813210
Ti       4.40406449       1.12067449      17.16980804      -0.00017301       0.01100746       0.00102743
Ti       1.46806330       1.10405863      17.13623714      -0.00008649       0.00008618       0.01188384
Ti       0.00001511       5.83659895      18.38709889      -0.00395591       0.00553194      -0.00022399
Ti       2.93605949       5.83660174      18.38718841       0.00396595       0.00550331      -0.00028440
Ti       2.93598027       2.88346341      18.97856366      -0.00043417       0.00685334      -0.00114850
Ti       0.00008558       2.88349948      18.97853207       0.00053727       0.00680553      -0.00114362
Ti       4.40404313       0.71696764      20.15018133       0.00002576       0.00326631       0.00128516
Ti       1.46803032       0.71145899      20.14797953      -0.00007174       0.01300613      -0.00167288
Ti       1.46803277       4.78027097      20.65154784      -0.00003487       0.00142900       0.00069458
Ti       4.40403838       4.77863021      20.65486243       0.00006105       0.00405565       0.00704099
Ti       2.93620762       2.60229726      21.82191365      -0.00341105       0.00690323      -0.00253545
Ti       5.87183469       2.60229064      21.82188561       0.00344581       0.00700496      -0.00245694
Ti       2.93584623       6.57165604      22.42205675      -0.00297702       0.00454823       0.00021159
Ti       0.00027271       6.57167957      22.42203356       0.00280778       0.00447609       0.00035628
Ti       4.40404109       4.39545529      23.61124164      -0.00003426       0.00867452       0.00315807
Ti       1.46803954       4.39663947      23.61046499      -0.00003328       0.00819488       0.00292541
Ti       4.40400790       1.57534934      24.09075533      -0.00000428       0.01065316      -0.00501086
Ti       1.46799973       1.57607653      24.08965586       0.00009791       0.01251344       0.00349696
Ti       2.93544446       6.33121976      25.24947817       0.00157529       0.01043801       0.00067143
Ti       0.00049674       6.33124243      25.24946442      -0.00144084       0.01027389       0.00067369
Ti       5.87185987       3.28572109      25.86089920      -0.00022119       0.00830277       0.00393944
Ti       2.93620138       3.28570442      25.86095497       0.00009800       0.00831497       0.00355719
Ti       1.46797264       1.15455299      27.17991277       0.00008908       0.00661725       0.00629669
Ti       4.40396640       1.15478282      27.18040926       0.00003686       0.00370463       0.00565746
