64
Lattice="5.871999 0.0 0.0 0.0 6.890708 0.0 0.0 0.0 27.401158" Properties=species:S:1:pos:R:3:forces:R:3 job_name=SegregationProfile-T1m-Al-Al-42-d-3.62 top_level=SegregationProfile solute=Al energy=-491.96712561 stress_kbar_3x3="_JSON [[-10.02908854, -8.628e-05, -0.0004965], [-8.628e-05, -10.35490362, 0.15007676], [-0.00049651, 0.15007676, -20.35917465]]" pbc="T T T"
Ti       2.93601958       0.10152636      27.39683089       0.00005230      -0.00246527      -0.00763666
Ti       2.93603504       2.93833038      27.39805642       0.00001718      -0.00870143      -0.01068835
Ti       0.00004357       0.09918685      27.39478919      -0.00010001      -0.00394850      -0.00289798
Ti       0.00003430       2.93749071      27.39496601       0.00004627      -0.01120814       0.00139161
Ti       4.40244335       5.02788838       1.40650418      -0.00074475      -0.00001887      -0.00201311
Ti       1.46960374       5.02787717       1.40650186       0.00073667       0.00000258      -0.00188556
Ti       4.40612831       1.32077335       2.02486849       0.00023654      -0.00543499      -0.00583655
Ti       1.46594090       1.32077328       2.02485395      -0.00030053      -0.00531587      -0.00550596
Ti       2.93602274       3.41260702       3.20692539      -0.00015532      -0.00133911       0.00177272
Ti       5.87198348       3.41206977       3.20685861       0.00023728      -0.00027274       0.00100608
Ti       2.93602700       6.23037159       3.61566514       0.00001836      -0.00468569       0.00478692
Ti       0.00001798       6.23014534       3.61442747       0.00004889      -0.00244335       0.00694098
Ti       1.46849440       1.49271554       4.83797010      -0.00111266      -0.00026061       0.00590921
Ti       4.40355478       1.49273404       4.83795049       0.00094734      -0.00036502       0.00620604
Ti       1.46967640       4.43976498       5.44215893      -0.00131368      -0.00175554       0.00533283
Ti       4.40234321       4.43975605       5.44215169       0.00135124      -0.00160883       0.00558263
Ti       2.93601920       6.59695098       6.60095142       0.00003540      -0.00318171       0.00211437
Ti       0.00002370       6.59484769       6.60141745      -0.00009262      -0.00376311       0.00166336
Ti       2.93599234       2.51995396       7.11153169       0.00020323      -0.00022716       0.00036820
Ti       0.00002700       2.52055314       7.10243405      -0.00015819      -0.00137200       0.00506976
Ti       4.40501020       4.67641603       8.27326239       0.00065895      -0.00246865      -0.00047412
Ti       1.46699121       4.67641301       8.27324639      -0.00063985      -0.00234265      -0.00023021
Ti       4.39962068       0.72648022       8.87462321       0.00150125       0.00005648       0.00116780
Ti       1.47240244       0.72648130       8.87461088      -0.00153291       0.00003170       0.00140421
Ti       5.87198851       2.87496763      10.07277570       0.00005079       0.00151337       0.00743941
Ti       2.93599083       2.88096562      10.09616292       0.00000129      -0.00047695       0.00088572
Ti       5.87198329       5.69899262      10.50411403       0.00008703      -0.00038617       0.00626094
Ti       2.93600652       5.70287267      10.52021391      -0.00005882       0.00053284       0.00046074
Ti       1.47373844       0.90427990      11.69231677      -0.00279757      -0.00013200      -0.00116843
Ti       4.39825336       0.90427789      11.69230462       0.00279759      -0.00004934      -0.00087550
Ti       1.44035823       4.07053979      12.30675579       0.00774054       0.00259992       0.00752926
Ti       4.43159992       4.07052929      12.30676607      -0.00766822       0.00266129       0.00748362
Ti       2.93599242       2.11925041      13.70367537      -0.00002845      -0.00773331       0.00980069
Ti       0.00000805       2.10034139      13.73579329      -0.00001891       0.01989071      -0.00164292
Ti       2.93598067       6.14379042      13.76252893       0.00001890       0.00102249      -0.00995825
Ti       5.87198087       6.15241464      13.68186530      -0.00000625       0.00477174       0.00346418
Ti       4.43400161       4.10586992      15.14891302       0.00414007      -0.00405013       0.00919061
Ti       1.43799514       4.10586673      15.14891014      -0.00416611      -0.00406791       0.00916226
Ti       4.34624810       0.92930054      15.74944318      -0.00077124      -0.00119860      -0.00209771
Ti       1.52573275       0.92930130      15.74946946       0.00080086      -0.00109060      -0.00235511
Ti       2.93598132       5.66649858      16.90397807       0.00013619      -0.00376539      -0.00734861
Ti       0.00000227       5.78590482      16.86774879      -0.00007077       0.01736332      -0.00166930
Al       2.93599566       2.88860060      17.31890159       0.00009101      -0.00428731      -0.01363373
Ti       0.00000574       2.93450196      17.35488651      -0.00003674       0.01538010       0.01067082
Ti       4.38276416       0.76081757      18.53116566      -0.00680497       0.00120527       0.00027873
Ti       1.48928190       0.76081322      18.53116838       0.00672886       0.00121313       0.00041191
Ti       4.41941211       4.67046716      19.10224740       0.00106694       0.00708569      -0.00914772
Ti       1.45259477       4.67046646      19.10222824      -0.00099313       0.00705899      -0.00895292
Ti       0.00003205       2.52014051      20.33287647      -0.00008818       0.00166385       0.01509439
Ti       2.93603497       2.52019233      20.27473288      -0.00001342       0.00243679      -0.00393669
Ti       0.00003030       6.58608650      20.77665483      -0.00007239       0.00304261      -0.00332105
Ti       2.93603765       6.59625882      20.75018496      -0.00004100       0.00428963      -0.00307959
Ti       1.47782945       4.43716951      21.94389531      -0.00432833       0.00743913       0.00165326
Ti       4.39424532       4.43716907      21.94389701       0.00438091       0.00743049       0.00173131
Ti       1.47689371       1.48085075      22.54414672       0.00332662       0.00031189      -0.00213418
Ti       4.39517478       1.48084918      22.54415408      -0.00328150       0.00031359      -0.00212531
Ti       2.93603151       6.22719709      23.76953225       0.00004320       0.00425718      -0.01094543
Ti       0.00003861       6.22486918      23.78305769       0.00002005      -0.00677451      -0.00837207
Ti       2.93604119       3.40615145      24.17872842      -0.00003623       0.00700764       0.00070678
Ti       0.00004951       3.40432137      24.16941940      -0.00001641      -0.00196975      -0.00314153
Ti       4.40623748       1.31920439      25.36216329       0.00077012      -0.00476427      -0.00148758
Ti       1.46584317       1.31920656      25.36215006      -0.00074025      -0.00479885      -0.00142371
Ti       4.40180922       5.02609347      25.97794110       0.00324524      -0.00594631      -0.00348675
Ti       1.47027739       5.02609422      25.97794807      -0.00334773      -0.00591178      -0.00346878
