64
Lattice="5.871999 0.0 0.0 0.0 6.890708 0.0 0.0 0.0 27.401158" Properties=species:S:1:pos:R:3:forces:R:3 job_name=SegregationProfile-T1m-Al-Al-47-d-5.43 top_level=SegregationProfile solute=Al energy=-491.99862191 stress_kbar_3x3="_JSON [[-11.40636905, 0.00038494, 8.02e-06], [0.00038495, -11.55347403, 0.09368387], [8.03e-06, 0.09368386, -17.35239375]]" pbc="T T T"
Ti       2.94277970       0.10078061      27.39789317       0.00400406      -0.00955557      -0.00419852
Ti       2.93580722       2.93643766      27.39586307       0.00102160       0.00211164      -0.00690634
Ti       5.86531833       0.10089392      27.39768754      -0.00408375      -0.00970098      -0.00337716
Ti       0.00024964       2.93675718      27.39587394      -0.00089823       0.00062373      -0.00704161
Ti       4.40387825       5.02554693       1.40141890       0.00066796      -0.00261304       0.00348408
Ti       1.46814275       5.02946002       1.41606396      -0.00068187      -0.00295893      -0.00323129
Ti       4.40396309       1.31897444       2.02601118       0.00030186      -0.00629768      -0.00470465
Ti       1.46810800       1.32096260       2.02799335      -0.00029014      -0.00614917      -0.00859971
Ti       2.93682969       3.41166951       3.20509508      -0.00334671      -0.00372076      -0.00085748
Ti       5.87124471       3.41163822       3.20518933       0.00324529      -0.00341835      -0.00145677
Ti       2.93687090       6.23082030       3.61834337      -0.00143081      -0.00436610      -0.00908672
Ti       5.87119513       6.23087108       3.61813570       0.00142717      -0.00461101      -0.00809323
Ti       1.46805760       1.49248005       4.83852895      -0.00012505      -0.00237476      -0.01042267
Ti       4.40400080       1.49067253       4.83493436       0.00010990       0.00032997      -0.00119058
Ti       1.46798971       4.44149468       5.43933554       0.00029430      -0.00010178      -0.00373639
Ti       4.40406322       4.43991106       5.43609767      -0.00024437      -0.00049802       0.00159122
Ti       2.93596694       6.59440248       6.59910423      -0.00079706       0.00182865      -0.00101836
Ti       0.00004384       6.59445279       6.59909999       0.00090582       0.00198498      -0.00111931
Ti       2.93554986       2.52005948       7.10155133       0.00030571      -0.00069949       0.00132355
Ti       0.00048956       2.52006124       7.10149825      -0.00025647      -0.00102609       0.00174881
Ti       4.40404533       4.67414757       8.25624947      -0.00014164      -0.00139154       0.00747083
Ti       1.46795551       4.67330117       8.26268611       0.00018889       0.00020761       0.01012710
Ti       4.40398882       0.73368259       8.86086110       0.00016849       0.00096215      -0.00382484
Ti       1.46804542       0.73279996       8.86716167      -0.00019937       0.00149259       0.00269883
Ti       5.86959963       2.88687101      10.08839938      -0.00038278      -0.00143228      -0.00134653
Ti       2.93838522       2.88682923      10.08824772       0.00040002      -0.00114545      -0.00065734
Ti       0.00046858       5.70149022      10.49133315       0.00264322      -0.00345838       0.00204429
Ti       2.93552983       5.70137509      10.49135310      -0.00268257      -0.00300598       0.00186310
Ti       1.46807498       0.90002861      11.67706078      -0.00033461      -0.00165593       0.01048637
Ti       4.40385158       0.90156294      11.66342926       0.00030696      -0.00803160      -0.00770328
Ti       1.46805883       4.08681386      12.27633400      -0.00050123       0.00164379       0.01459666
Ti       4.40390790       4.09329521      12.30521355       0.00030418       0.00692193      -0.00387254
Ti       2.96180895       2.11575461      13.69459210       0.00918018       0.01123854       0.00462864
Ti       5.84621167       2.11578681      13.69454400      -0.00934312       0.01081589       0.00488201
Ti       2.94507730       6.18176537      13.71690672       0.00590094      -0.00375583       0.00603703
Ti       5.86281751       6.18165622      13.71688587      -0.00577807      -0.00325916       0.00620550
Ti       4.40389288       4.07642331      15.12657763       0.00043880       0.00313658       0.00230876
Ti       1.46810185       4.07919547      15.07651246      -0.00037411      -0.00406429      -0.00766357
Ti       4.40394127       0.89810637      15.75681097       0.00024801       0.00576697       0.00439723
Ti       1.46809360       0.89456438      15.72971338      -0.00041691      -0.00043901       0.01581132
Ti       2.89980335       5.69086066      16.91212367       0.00498249       0.01398731      -0.01060002
Ti       0.03619729       5.69092662      16.91222019      -0.00487300       0.01383838      -0.01106339
Ti       2.90734516       2.91647165      17.33833732       0.00618593      -0.00197282      -0.00634616
Ti       0.02868204       2.91654111      17.33822010      -0.00620998      -0.00261833      -0.00558165
Ti       4.40398808       0.79847059      18.54789193       0.00022193      -0.00197559       0.01351310
Ti       1.46803705       0.66414649      18.52510573      -0.00014201       0.00254182      -0.01581902
Ti       4.40406678       4.71596062      19.18432954      -0.00024313       0.00660672      -0.00521412
Al       1.46806486       4.71022513      19.13603271      -0.00029700       0.01312616       0.00157308
Ti       0.02796822       2.54629839      20.29540390      -0.00955013       0.00061494       0.00534633
Ti       2.90808329       2.54629336      20.29536923       0.00965656       0.00092691       0.00532713
Ti       5.86713522       6.57910814      20.79085958      -0.00099432       0.00479894      -0.00534485
Ti       2.94088048       6.57910976      20.79084018       0.00122566       0.00451317      -0.00535331
Ti       1.46803386       4.42288307      21.94113278      -0.00003595       0.00474561      -0.00020809
Ti       4.40401264       4.44278403      22.03165756      -0.00006481       0.00010905      -0.00613590
Ti       1.46806308       1.51173552      22.52658915      -0.00023412       0.00160918       0.00725749
Ti       4.40397462       1.47466170      22.53941606       0.00022738       0.00165754       0.00914780
Ti       2.91720574       6.22929304      23.77766406       0.00347501      -0.00319667       0.01227249
Ti       0.01882441       6.22933860      23.77802731      -0.00334060      -0.00304604       0.01068804
Ti       2.91336553       3.39702408      24.19062381       0.00239328      -0.00209628       0.00622143
Ti       0.02263650       3.39701591      24.19048009      -0.00207556      -0.00219620       0.00677145
Ti       4.40383999       1.31867080      25.36813821       0.00063751      -0.00511242      -0.00549157
Ti       1.46820012       1.30979530      25.36807449      -0.00049372      -0.00046137       0.00549975
Ti       4.40390091       5.02322784      25.97023996       0.00046510      -0.00180510      -0.00498162
Ti       1.46824068       5.03095340      25.99400315      -0.00067103      -0.00392876      -0.00307481
