64
Lattice="5.871999 0.0 0.0 0.0 6.890708 0.0 0.0 0.0 27.401158" Properties=species:S:1:pos:R:3:forces:R:3 job_name=SegregationProfile-T1m-V-V-44-d-4.84 top_level=SegregationProfile solute=V energy=-495.77438886 stress_kbar_3x3="_JSON [[-13.18355626, 0.00039773, 0.00045071], [0.00039771, -13.35925687, -1.96133933], [0.00045071, -1.96133933, -20.63588859]]" pbc="T T T"
Ti       2.92733752       0.10037415      27.38692361      -0.00078506       0.01303323      -0.00005956
Ti       2.93402123       2.93505379      27.38418309      -0.00140482      -0.00665825      -0.00040064
Ti       0.00870629       0.10040112      27.38692426       0.00095388       0.01272622       0.00002057
Ti       0.00206240       2.93506572      27.38418370       0.00145713      -0.00674996      -0.00034265
Ti       4.40404544       5.02896454       1.39945185      -0.00016798      -0.01099129       0.01285195
Ti       1.46802458       5.02822385       1.39908280       0.00002035      -0.01083670       0.00820055
Ti       4.40405470       1.31753570       2.01575092      -0.00011312      -0.00007786       0.00798632
Ti       1.46797456       1.31919332       2.02179792       0.00025557       0.00192681       0.01170828
Ti       2.93693881       3.41289653       3.20440497       0.00211698      -0.00600317       0.00000748
Ti       5.87108901       3.41292989       3.20437477      -0.00208259      -0.00613955       0.00020535
Ti       2.93554315       6.22613501       3.61063416       0.00083637       0.00101978       0.00679918
Ti       0.00049046       6.22613539       3.61065835      -0.00079822       0.00105842       0.00673869
Ti       1.46800094       1.49238471       4.83590241       0.00003963      -0.00011739      -0.00527690
Ti       4.40400690       1.49102392       4.83452330      -0.00014430       0.00133651      -0.00406885
Ti       1.46801560       4.44087984       5.44320159       0.00004340      -0.00062906      -0.00325120
Ti       4.40401363       4.44027899       5.44349908      -0.00002137      -0.00225360      -0.00538398
Ti       2.93384635       6.59772914       6.60658628       0.00079857      -0.00199607      -0.00459403
Ti       0.00217103       6.59771577       6.60660392      -0.00079852      -0.00178654      -0.00479189
Ti       2.93442016       2.51855431       7.10821962       0.00200675       0.00855584      -0.00261325
Ti       0.00161235       2.51856009       7.10822236      -0.00204150       0.00842571      -0.00258473
Ti       4.40403608       4.67586962       8.27215538      -0.00015282       0.01152429       0.00168178
Ti       1.46798671       4.68015053       8.27206998       0.00015187       0.00902444      -0.00341251
Ti       4.40401560       0.73521356       8.86993868      -0.00005323       0.00638214       0.01272063
Ti       1.46800238       0.73465167       8.88845252       0.00006970       0.00582677      -0.00791359
Ti       0.00122466       2.89236395      10.09789244      -0.00154288       0.01060774      -0.00523126
Ti       2.93477934       2.89231799      10.09787125       0.00155217       0.01088172      -0.00515794
Ti       0.00764633       5.71262778      10.50972763      -0.00487088       0.01759814       0.00581505
Ti       2.92836912       5.71260119      10.50975318       0.00480977       0.01758027       0.00560726
Ti       1.46802793       0.92682548      11.71371849      -0.00007659       0.01402619      -0.00383621
Ti       4.40396979       0.92028183      11.68679913       0.00006791       0.01812747      -0.00160599
Ti       1.46801494       4.09250899      12.32173975      -0.00008344       0.01099484      -0.00981160
Ti       4.40396680       4.09314970      12.30510200       0.00012922       0.00808855       0.00410266
Ti       2.95997266       2.14903514      13.74482392      -0.00980172      -0.00769621       0.01350716
Ti       5.84800323       2.14903798      13.74480038       0.00990654      -0.00782178       0.01355318
Ti       2.94189922       6.19476139      13.71039846      -0.00126651       0.00644136      -0.00461751
Ti       5.86608653       6.19471563      13.71037907       0.00134164       0.00667545      -0.00447762
Ti       4.40398060       4.12642538      15.14824901       0.00005455       0.01526923       0.00404825
Ti       1.46802698       4.13708783      15.16084923      -0.00016124       0.01293262      -0.00243454
Ti       4.40398476       0.90008201      15.78027315       0.00001722       0.00329400      -0.01147538
Ti       1.46800547       0.88167580      15.72296711      -0.00002457      -0.00851093       0.00078437
Ti       2.94733904       5.73566300      16.98765022      -0.00857609       0.00179805      -0.00643936
Ti       5.86068080       5.73567066      16.98766684       0.00848899       0.00180316      -0.00683052
Ti       2.96074135       2.86760173      17.31283396      -0.00126468      -0.00654985       0.00069598
Ti       5.84726486       2.86761037      17.31288405       0.00122039      -0.00645837       0.00038902
V        4.40409360       0.75101704      18.53240504      -0.00005041       0.01141854       0.01261334
Ti       1.46795213       0.74222298      18.52006921       0.00018333      -0.00809276      -0.01373310
Ti       4.40405702       4.67458328      19.14880491      -0.00036714      -0.00668462       0.01402132
Ti       1.46795816       4.61185928      19.13215475       0.00032086      -0.00714893      -0.00302688
Ti       5.84665988       2.47388719      20.26157519      -0.00842897       0.00562601       0.00045460
Ti       2.96137142       2.47389840      20.26159749       0.00847493       0.00583724       0.00041906
Ti       5.84590196       6.58370556      20.73638954      -0.00233356      -0.01164065       0.00705717
Ti       2.96210581       6.58369959      20.73637657       0.00246324      -0.01180337       0.00681760
Ti       1.46800943       4.43545229      21.92485624       0.00017407      -0.01077336       0.01114059
Ti       4.40406728       4.42102881      21.94077556      -0.00022551      -0.00940869      -0.01233076
Ti       1.46799524       1.47728138      22.52101202       0.00017070      -0.01137825       0.00094598
Ti       4.40404596       1.48236143      22.55293876      -0.00032070      -0.00340707      -0.00794892
Ti       2.93421350       6.22012470      23.76082069      -0.00101405      -0.00683190      -0.00653240
Ti       0.00186262       6.22009604      23.76081484       0.00109158      -0.00675132      -0.00656907
Ti       2.93217411       3.40885067      24.16754730       0.00191424      -0.01433804       0.00543570
Ti       0.00389269       3.40885474      24.16758391      -0.00184735      -0.01423871       0.00539611
Ti       4.40411604       1.31665480      25.36152044      -0.00049066      -0.00948654      -0.00901756
Ti       1.46800416       1.31553055      25.33961055       0.00017527      -0.00428626      -0.00156301
Ti       4.40405883       5.02640087      25.97530499      -0.00009088      -0.01484739      -0.01015541
Ti       1.46801538       5.03011804      25.97308925       0.00009454      -0.01744630      -0.00423631
