52
Lattice="4.6568 0.0 0.0 0.0 7.770572 0.0 0.0 0.0 25.044546" Properties=species:S:1:pos:R:3:forces:R:3 job_name=SegregationProfile-CSL7-V-V-25-d-0.00 top_level=SegregationProfile solute=V energy=-401.68859118 stress_kbar_3x3="_JSON [[-18.78047309, -0.00071392, 2.51051772], [-0.00071389, -27.08820375, -0.00158062], [2.51051773, -0.00158063, -23.78746514]]" pbc="T T T"
Ti       1.81616304       7.39115871       0.70760047      -0.00017141       0.00627403      -0.00083444
Ti       4.62987469       5.60086657       1.37293384       0.00222492      -0.00034385      -0.00467612
Ti       2.45695590       2.27431939       1.61527644      -0.00072728       0.00758836       0.00311103
Ti       4.56512592       0.62246296       2.08131608      -0.00196885       0.00499525       0.00343794
Ti       2.35639978       5.01035967       2.83553721       0.00157596      -0.00146012      -0.00080169
Ti       0.02443972       3.33599511       3.01591034       0.00048947      -0.00025872       0.00782065
Ti       2.30595917       0.01130441       3.64775207      -0.00232860       0.00137764       0.00858439
Ti       0.02493679       6.10724472       4.10523606      -0.00319998       0.00282826       0.00244495
Ti       2.33956485       2.76550438       4.60565258       0.00086830      -0.00234285       0.00776530
Ti       0.00186496       1.11401988       4.99879077      -0.00154299       0.00319203       0.01422630
Ti       2.34064375       5.57516374       5.63431509      -0.00654759      -0.00507814       0.00461008
Ti       0.00218074       3.87380634       5.95636005      -0.00482316      -0.00189225       0.00880998
Ti       2.33233427       0.56372895       6.57966047      -0.00953014       0.00144208       0.00987545
Ti       0.00486604       6.64266860       6.94489319      -0.00835158       0.00374802       0.00235977
Ti       2.32064738       3.32326853       7.54678708      -0.00682479      -0.00358908       0.00378749
Ti       4.65652701       1.66803058       7.92855520      -0.00809926       0.00003194       0.01238557
Ti       2.32769999       6.10719995       8.47404577      -0.00667875      -0.00279118      -0.00228063
Ti       4.62679779       4.41844940       8.89541302      -0.01399782       0.00478989       0.00127521
Ti       2.33723591       1.11105073       9.49225994      -0.00600259      -0.00780115       0.00309368
Ti       4.61886255       7.21052700       9.76238337      -0.00142427       0.00329799       0.00345449
Ti       2.22412458       3.82605090      10.48582173      -0.01013933      -0.00434890      -0.00076229
Ti       0.15724230       2.12535950      10.95173727      -0.01659181      -0.00551443      -0.00719123
Ti       2.20145164       6.62627826      11.20104036      -0.00244705      -0.00142336       0.00896680
Ti       4.16278952       4.81843048      11.81601343      -0.00441468       0.00584871       0.00268632
Ti       2.70442941       1.58774479      12.52191381      -0.00013696      -0.01900656      -0.00058162
V        0.37606186       7.72209889      12.52189950      -0.00021875      -0.00284928      -0.00078768
Ti       1.24657543       4.81834482      13.22774063       0.00388182       0.00600699      -0.00389352
Ti       3.20755575       6.62586290      13.84265297       0.00095730      -0.00132671      -0.00972723
Ti       0.59486543       2.12551709      14.09198228       0.01639051      -0.00566056       0.00614855
Ti       3.18482694       3.82595740      14.55807380       0.00965966      -0.00448365       0.00102010
Ti       0.78990914       7.21051784      15.28101554       0.00157481       0.00338420      -0.00359404
Ti       3.07145388       1.11100844      15.55119157       0.00633623      -0.00803592      -0.00341640
Ti       0.78209899       4.41860630      16.14813292       0.01452191       0.00516935      -0.00109888
Ti       3.08065009       6.10738525      16.56953799       0.00650641      -0.00232740       0.00255568
Ti       0.75203918       1.66814910      17.11501367       0.00793784       0.00003748      -0.01271594
Ti       3.08807049       3.32338126      17.49684377       0.00677254      -0.00299171      -0.00359031
Ti       0.74666221       6.64308274      18.09859122       0.00869849       0.00305439      -0.00196554
Ti       3.07597917       0.56410362      18.46399443       0.00983217       0.00034545      -0.00903768
Ti       0.74979450       3.87428330      19.08712758       0.00499842      -0.00230562      -0.00769455
Ti       3.06810024       5.57559354      19.40917787       0.00607185      -0.00474228      -0.00394188
Ti       0.74981169       1.11446869      20.04485894       0.00150831       0.00272800      -0.01330745
Ti       3.06893116       2.76611011      20.43784096      -0.00030441      -0.00353635      -0.00720265
Ti       0.72735429       6.10768549      20.93817965       0.00332448       0.00333387      -0.00185347
Ti       3.10306766       0.01175593      21.39604941       0.00273926       0.00154749      -0.00803011
Ti       0.72769173       3.33617307      22.02755342      -0.00023989      -0.00019062      -0.00679431
Ti       3.05249603       5.01097951      22.20776888      -0.00172355      -0.00127800       0.00100963
Ti       0.84451475       0.62258592      22.96234519       0.00192956       0.00545050      -0.00374739
Ti       2.95269506       2.27443244      23.42804971       0.00106839       0.00719148      -0.00362447
Ti       0.77937481       5.60112471      23.67064468      -0.00236758      -0.00000492       0.00413893
Ti       3.59354578       7.39139196      24.33617351       0.00056588       0.00699049       0.00025732
Ti       0.37646298       2.80008982      25.04404047       0.00025867       0.00338974      -0.00047143
Ti       2.70478400       4.56895893      25.04393612       0.00010990       0.00153999      -0.00020267
