52
Lattice="4.6568 0.0 0.0 0.0 7.770572 0.0 0.0 0.0 25.044546" Properties=species:S:1:pos:R:3:forces:R:3 job_name=SegregationProfile-CSL7-V-V-24-d-0.00 top_level=SegregationProfile solute=V energy=-401.34119083 stress_kbar_3x3="_JSON [[-19.28762191, -0.00333225, 2.3700021], [-0.00333225, -25.17231484, -0.00825607], [2.37000208, -0.00825606, -23.85728704]]" pbc="T T T"
Ti       1.81487225       7.39545995       0.71131867       0.00927318       0.00351749      -0.00703742
Ti       4.62920267       5.59986390       1.36988930      -0.00146198      -0.01047994      -0.00083579
Ti       2.45954850       2.27543438       1.61750271      -0.00121784      -0.00052839       0.00463510
Ti       4.56689296       0.62242819       2.08745503      -0.00257502       0.00568291       0.00405966
Ti       2.35377780       5.00703574       2.83286795       0.00244626      -0.00491318       0.00085369
Ti       0.02371454       3.33320883       3.02259877      -0.00057541       0.00071347       0.00535204
Ti       2.30818101       0.01009070       3.65930527      -0.00133217       0.00091031       0.00685941
Ti       0.02813270       6.10069987       4.09808679      -0.00018156      -0.00235365       0.00666759
Ti       2.33675027       2.75965215       4.61154878      -0.00141822       0.00185520       0.00377670
Ti       0.00036602       1.11239125       5.01040625      -0.00057321      -0.00112947       0.00624801
Ti       2.34299280       5.56406889       5.62667357      -0.00138986      -0.00011670       0.00140988
Ti       0.00548012       3.86529140       5.96736310      -0.00226842       0.00009983      -0.00093163
Ti       2.32816208       0.56122605       6.60292806      -0.00260073      -0.00571173       0.00290008
Ti       0.01260415       6.62880161       6.92647796      -0.00207258       0.00317688      -0.00271548
Ti       2.32399069       3.31633092       7.55671722      -0.00441502      -0.00522479       0.00057316
Ti       4.64758006       1.67169081       7.95138984      -0.00357009       0.00178101       0.00209275
Ti       2.34905286       6.09158228       8.45395163      -0.00490911       0.00374804       0.00457223
Ti       4.61544050       4.40850571       8.91029204      -0.00684100      -0.00159895       0.00175668
Ti       2.30609158       1.10887278       9.55333359      -0.00305481       0.00124020      -0.00212151
Ti       0.00183051       7.18630989       9.70955137      -0.00467199      -0.00043824      -0.00025494
Ti       2.20704964       3.78962378      10.51258584      -0.00401140       0.00201203       0.00409832
Ti       0.04107067       2.17792293      10.98664320      -0.00404429       0.00344122      -0.00243997
Ti       2.29258852       6.64612284      11.16958303      -0.00356343      -0.00015477       0.00057437
Ti       4.12512065       4.85170033      11.82261314       0.00274458       0.00127539      -0.00512983
V        2.70446374       1.68122927      12.52190352       0.00005882      -0.00154130      -0.00023460
Ti       0.37662186       7.70505829      12.52207803       0.00005888       0.00106998      -0.00039180
Ti       1.28469148       4.85172117      13.22143612      -0.00264506       0.00295560       0.00378039
Ti       3.11678047       6.64637351      13.87416083       0.00322490       0.00010052      -0.00142619
Ti       0.71100437       2.17845753      14.05687601       0.00386245       0.00305638       0.00223269
Ti       3.20235004       3.78993027      14.53129946       0.00405350       0.00123955      -0.00419046
Ti       0.75007059       7.18669444      15.33430648       0.00502965      -0.00023461      -0.00069499
Ti       3.10245626       1.10921159      15.49040817       0.00297073       0.00137789       0.00136740
Ti       0.79375598       4.40896407      16.13317983       0.00662186      -0.00128266      -0.00150727
Ti       3.05959469       6.09195130      16.58929706       0.00499070       0.00318134      -0.00436427
Ti       0.76081125       1.67232716      17.09179941       0.00396887       0.00207779      -0.00213902
Ti       3.08464638       3.31669653      17.48666392       0.00469953      -0.00538054      -0.00055478
Ti       0.73912910       6.62938804      18.11672350       0.00229647       0.00289404       0.00293276
Ti       3.08009012       0.56166680      18.44005670       0.00243015      -0.00549987      -0.00220533
Ti       0.74602085       3.86598215      19.07591902       0.00226304      -0.00002160       0.00105238
Ti       3.06590845       5.56473054      19.41653309       0.00144332      -0.00036979      -0.00103924
Ti       0.75109698       1.11289430      20.03271094       0.00031379      -0.00100325      -0.00580396
Ti       3.07149910       2.76040120      20.43178480       0.00153038       0.00191260      -0.00377877
Ti       0.72388240       6.10121828      20.94528825       0.00018247      -0.00272118      -0.00584259
Ti       3.10053894       0.01078735      21.38412003       0.00110302       0.00147359      -0.00676750
Ti       0.72825395       3.33350966      22.02107160       0.00072845       0.00059656      -0.00517926
Ti       3.05496358       5.00779350      22.21104615      -0.00218402      -0.00439369      -0.00250958
Ti       0.84277656       0.62260664      22.95627780       0.00237091       0.00542005      -0.00379197
Ti       2.95021934       2.27585092      23.42615342       0.00086331      -0.00165562      -0.00470987
Ti       0.77997625       5.60012116      23.67447682       0.00020367      -0.01010243      -0.00029185
Ti       3.59452794       7.39562762      24.33265500      -0.00924421       0.00391943       0.00866874
Ti       0.37652913       2.79880825      25.04430870       0.00009439      -0.00589078       0.00028925
Ti       2.70453759       4.56632591      -0.00054145       0.00099415       0.01201784       0.00213662
