52
Lattice="4.6568 0.0 0.0 0.0 7.770572 0.0 0.0 0.0 25.044546" Properties=species:S:1:pos:R:3:forces:R:3 job_name=SegregationProfile-CSL7-V-V-30-d-2.82 top_level=SegregationProfile solute=V energy=-401.54238806 stress_kbar_3x3="_JSON [[-19.83143521, -0.36005787, -0.04142091], [-0.36005788, -23.66351844, 0.63262948], [-0.04142091, 0.6326295, -25.03318218]]" pbc="T T T"
Ti       1.81831181       7.39775097       0.69843156       0.01132667       0.00007947      -0.00604202
Ti       4.63199516       5.60240837       1.36407348      -0.00207024      -0.00359534      -0.00103066
Ti       2.45922784       2.27839671       1.60836773      -0.00119090       0.00278777       0.00132870
Ti       4.56790435       0.62353368       2.07590870      -0.00378352       0.00614115       0.00947990
Ti       2.35762068       5.01315591       2.82820307       0.00222601       0.00054899       0.00248217
Ti       0.02416910       3.33721904       3.01212308       0.00116397       0.00019023       0.00213456
Ti       2.30977884       0.01367269       3.64751516       0.00155820       0.00212862       0.00264281
Ti       0.02876768       6.10629971       4.09917904       0.00163220       0.00275168       0.00432291
Ti       2.34078780       2.76753103       4.60377138       0.00160974      -0.00078758       0.00180775
Ti       0.00373640       1.11666937       5.00138356       0.00054254      -0.00077568       0.00026428
Ti       2.34594913       5.57168547       5.62973106       0.00140589       0.00229694       0.00215192
Ti       0.00897217       3.87354382       5.95725128       0.00057630       0.00039150       0.00317261
Ti       2.33612693       0.56559302       6.58496156       0.00153116      -0.00103109       0.00175115
Ti       0.01651851       6.64191582       6.94161496       0.00130542      -0.00249526       0.00257758
Ti       2.33418502       3.32513322       7.54238323       0.00005093      -0.00030410       0.00480667
Ti       0.01373923       1.67160022       7.94109698       0.00217308      -0.00095220       0.00448973
Ti       2.35265858       6.10363994       8.47215059       0.00092742      -0.00323807      -0.00003300
Ti       4.63844364       4.42144843       8.89594405       0.00058464      -0.00070721       0.00371674
Ti       2.34643207       1.10220067       9.51431355       0.00164996      -0.00296459       0.00305850
Ti       0.02236546       7.20599872       9.75080999       0.00117605      -0.00183794       0.00020429
Ti       2.22079525       3.81291799      10.48044044      -0.00147531      -0.00695767      -0.00015376
Ti       0.12475481       2.14511149      10.93942322      -0.00008542      -0.00595344       0.00254051
Ti       2.30604324       6.61235881      11.20252003      -0.00016105      -0.00218802       0.00137276
Ti       4.16358639       4.82147807      11.81972399       0.00583273      -0.00313070       0.00214651
Ti       2.69152997       1.59940819      12.51277009       0.00170290      -0.00546445      -0.00045980
Ti       0.44422554       7.62412531      12.65989446      -0.00001127      -0.00401614       0.00098547
Ti       1.25468755       4.81970559      13.25472991      -0.00393334       0.00463670      -0.00481907
Ti       3.15998396       6.52568471      13.96699012       0.00736747      -0.00164214      -0.00135575
Ti       0.63185958       2.17782112      14.13558981      -0.00009637      -0.00312116      -0.00328799
Ti       3.16302322       3.73746148      14.54325119       0.00151204      -0.00824883       0.00410223
V        0.69615217       7.23440078      15.44123859       0.00056459      -0.00052738      -0.00104637
Ti       3.02201710       1.04680574      15.46934350      -0.00330284      -0.00482421      -0.00431491
Ti       0.77835480       4.52150855      16.09794091       0.00041593       0.00192645      -0.00107209
Ti       3.05036735       6.13366840      16.59043187       0.00074288       0.00102272       0.00088982
Ti       0.72399883       1.68893310      17.06262377      -0.00375330      -0.00241586      -0.00502349
Ti       3.07855009       3.33133055      17.45451621      -0.00166869       0.00072778      -0.00159121
Ti       0.72698957       6.66667952      18.10408157      -0.00080188       0.00241949      -0.00197396
Ti       3.06928533       0.58410276      18.44149582      -0.00365732       0.00134421      -0.00047601
Ti       0.74451801       3.88428617      19.04930100      -0.00172857       0.00299651      -0.00266216
Ti       3.06122104       5.56804527      19.40644828      -0.00245175       0.00183079       0.00142483
Ti       0.74444664       1.12637368      20.02363425      -0.00322911       0.00252544      -0.00207127
Ti       3.06833436       2.77461587      20.41232551      -0.00218145       0.00200803      -0.00245139
Ti       0.71971285       6.10568560      20.93658014      -0.00262996       0.00440907      -0.00261163
Ti       3.09745564       0.01479936      21.36924744      -0.00316081       0.00406680      -0.00652953
Ti       0.72885289       3.34418608      22.00561112       0.00025181       0.00249974      -0.00477410
Ti       3.05255453       5.01387252      22.20611284      -0.00213735       0.00480782      -0.00007999
Ti       0.84119064       0.62548294      22.94604412       0.00242855       0.00501713      -0.01057053
Ti       2.94949878       2.27957393      23.41295331       0.00039356       0.00464773      -0.00209360
Ti       0.77853421       5.60059196      23.66637835      -0.00002873      -0.00326905       0.00073950
Ti       3.59125673       7.39758932      24.32429737      -0.00943702       0.00346422       0.00349589
Ti       0.37520516       2.80152416      25.03329829      -0.00011044      -0.00179932      -0.00075434
Ti       2.70421431       4.57111677      25.03917079       0.00043401       0.00458047      -0.00081115
