52
Lattice="5.088765 0.0 0.0 0.0 5.495746 0.0 0.0 0.0 48.722931" Properties=species:S:1:pos:R:3:move_mask:L:1:forces:R:3 job_name=RGS-1sol-C1-V-V-28-d-1.38-V-28-d-1.38 top_level=RGS-1sol solute=V energy=-396.58368014 stress_kbar_3x3="_JSON [[-38.78878044, -0.01812397, -0.19599688], [-0.01812399, -22.81342885, 1.94299729], [-0.19599686, 1.94299725, -29.74130269]]" pbc="T T T"
Ti       2.55782702       0.14185620      40.03665558  F      -0.18323424      -0.16012000      -0.94632431
Ti       0.49590524       1.69934512       8.62702833  F      -0.00099901      -0.11348371       0.87148295
Ti       0.35089070       4.44646520       8.62824640  F       0.00171165      -0.11784608       0.86843727
Ti       2.50759073       3.05855851       9.99049083  F       0.06410820      -0.00876527      -0.03828597
Ti       3.43162394       0.30938302       9.99122168  F      -0.05740600      -0.00122632      -0.04233314
Ti       0.89065601       0.33509762      11.05153010  F      -0.15469452       0.12112654      -0.45627742
Ti       5.05090459       3.08422914      11.05196861  F       0.14942440       0.11479515      -0.45776751
Ti       3.09403527       1.62897209      12.41158200  F      -0.06238944      -0.04996564      -0.04043991
Ti       2.84885858       4.37675716      12.41552855  F       0.06675124      -0.04605376      -0.05431590
Ti       0.03726503       5.45473674      13.72242373  F      -0.06033215       0.02605609      -0.01735579
Ti       0.81972371       2.70745728      13.72130311  F       0.06629601       0.02288360      -0.01723696
Ti       3.42847400       3.30444918      14.94249465  F      -0.03417185      -0.03655122       0.00973272
Ti       2.52238377       0.55587272      14.94273826  F       0.02972937      -0.02930102       0.00184786
Ti       0.79397965       4.11018050      16.21094743  F       0.01610971       0.00187747       0.01649853
Ti       0.07108496       1.36070824      16.21187317  F      -0.01678721       0.00715934       0.01592200
Ti       2.61150840       2.18215190      17.47555111  F      -0.00804221       0.00176366       0.00177022
Ti       3.34260618       4.93163515      17.47467409  F       0.00391748      -0.00150701       0.00916521
Ti       0.89171447       0.23409130      18.74005734  F      -0.00923977       0.01075503      -0.00467880
Ti       5.06400307       2.97664991      18.73908288  F       0.00781998       0.02022684      -0.01234048
Ti       3.36139899       0.84406965      19.96212589  F      -0.00200587       0.00862652       0.00701428
Ti       2.59779418       3.59123369      19.95861784  F       0.00428177       0.00724202       0.00761714
Ti       0.32570640       4.69802198      21.28159159  F      -0.00019906       0.01552927       0.00815425
Ti       0.54629419       1.95267153      21.28207881  F       0.00276209      -0.00479186       0.00842589
Ti       2.49403935       0.46179105      22.63857394  F       0.00229315       0.00527196       0.00749846
Ti       3.45771913       3.26004905      22.64091264  F      -0.00103793       0.00883319      -0.00559187
Ti       0.91136728       3.35055849      23.70063639  F      -0.00833071       0.01290378      -0.00454845
Ti       5.03414729       0.53125178      23.69030713  F       0.00722370       0.00200078       0.00903498
Ti       2.96691284       1.90193480      24.99208640  F      -0.00505244       0.01259357       0.00135452
V        2.96907047       4.65720508      24.99189150  F      -0.00100528       0.01016689       0.00575828
Ti       5.02129306       3.34101238      26.29138080  F       0.00572141       0.01285089      -0.00648398
Ti       0.90269093       0.52154080      26.29323227  F      -0.00423847       0.00519081       0.00873569
Ti       3.44311946       0.45871893      27.34369866  F      -0.00308525      -0.00244518       0.00050377
Ti       2.47456464       3.25503693      27.34462440  F       0.00542468       0.01180566      -0.00115405
Ti       0.51428077       4.68265588      28.70224015  F       0.00361551      -0.00684630      -0.01313123
Ti       0.30957502       1.93277143      28.70409162  F      -0.00542265      -0.00349020      -0.01661898
Ti       2.57812101       0.80268118      30.02029288  F      -0.00341737       0.00717606      -0.00316788
Ti       3.33762428       3.55098835      30.02419071  F       0.00547837       0.00332287      -0.00919583
Ti       5.04561227       0.18737746      31.24684394  F       0.00369170       0.00253269       0.00122456
Ti       0.87641764       2.93370066      31.25186240  F      -0.00645800      -0.00198374      -0.00516461
Ti       3.32606769       2.12024782      32.50711127  F      -0.00629859      -0.03531864       0.01159872
Ti       2.59933607       4.86825821      32.50969359  F       0.01048422      -0.03364820       0.00117129
Ti       0.78466212       1.26442277      33.77882850  F       0.02887146      -0.00184204       0.00975935
Ti       0.04936611       4.01207594      33.78214165  F      -0.03062070      -0.00034036       0.00303979
Ti       2.53022556       3.22552477      35.03144633  F       0.03033445      -0.00600603      -0.06837559
Ti       3.39574306       0.47895976      35.03363886  F      -0.02943889      -0.00960490      -0.07016936
Ti       0.80092072       5.25073465      36.26783943  F      -0.05418060      -0.05340857       0.08377093
Ti       0.04037935       2.50208675      36.26705986  F       0.05149242      -0.05071963       0.08583097
Ti       2.67718400       1.57107990      37.56421045  F       0.06722669      -0.00494704       0.61854569
Ti       3.25423468       4.31926616      37.56162814  F      -0.06835528      -0.00467042       0.62194145
Ti       0.87667208       3.34505175      38.85405260  F       0.25632138       0.24512341      -0.03019815
Ti       5.05349477       0.59676108      38.85707342  F      -0.25802508       0.24812712      -0.03300693
Ti       3.37368835       2.88908070      40.03485284  F       0.18337752      -0.16105812      -0.94167365
