64
Lattice="5.088765 0.0 0.0 0.0 9.739025 0.0 0.0 0.0 38.303587" Properties=species:S:1:pos:R:3:move_mask:L:1:forces:R:3 job_name=RGS-1sol-T2-V-V-35-d-0.63-V-35-d-0.63 top_level=RGS-1sol solute=V energy=-481.60259 stress_kbar_3x3="_JSON [[-19.75662443, -3.65305418, -0.17158143], [-3.65305415, -20.36617796, -0.80934168], [-0.17158139, -0.80934167, -21.24886558]]" pbc="T T T"
Ti       2.52877017       9.30037931       8.34976063  F       0.88251967       0.02008624       0.90950325
Ti       5.07354450       4.42995135       8.35056500  F       0.88539199       0.02182327       0.90560536
Ti       1.25081844       1.91138105       8.95721721  F      -0.82847642      -0.46223056       0.66803161
Ti       3.79536378       6.78064033       8.95480409  F      -0.82396097      -0.45578160       0.66906403
Ti       2.71650998       4.08683576       9.74393459  F      -0.19692713      -0.03645934       0.08452127
Ti       0.17201043       8.95929918       9.74546673  F      -0.19568289      -0.03905558       0.07634579
Ti       1.03202699       6.23536206      10.47139631  F       0.11870324       0.27687470      -0.65590064
Ti       3.57516274       1.36438871      10.47342640  F       0.12015303       0.27554622      -0.65414664
Ti       0.21896447       3.51697619      11.12259559  F       0.04057572       0.26283626      -0.46701519
Ti       2.76409502       8.38903057      11.12171461  F       0.04108642       0.25734357      -0.47172799
Ti       1.10627207       0.89470475      11.84971259  F      -0.04507269       0.00589761      -0.19605030
Ti       3.65073090       5.76651566      11.84308606  F      -0.04634748       0.00515683      -0.19813255
Ti       2.74323617       3.14168286      12.54028796  F       0.01969902      -0.07164073      -0.05894496
Ti       0.19603449       8.01325029      12.54300751  F       0.01733913      -0.07574575      -0.05674136
Ti       3.59974147       0.47882890      13.21496734  F       0.01203909       0.03431021      -0.02607835
Ti       1.05724182       5.34849723      13.20857064  F       0.01142092       0.03805797      -0.02515741
Ti       2.76464969       7.55432796      13.90891342  F       0.00072714      -0.04059753       0.02596664
Ti       0.22592590       2.67996542      13.91255226  F       0.00107828      -0.03298740       0.02306191
Ti       3.61402055       4.88745178      14.65495239  F       0.01317978       0.02610665      -0.03214290
Ti       1.06358751       0.01597200      14.67134632  F       0.01497896       0.01918155      -0.03120253
Ti       0.21472553       7.10197946      15.34552776  F      -0.00374344      -0.00575084      -0.00285584
Ti       2.76655798       2.22243577      15.35157972  F      -0.00784517       0.00666086      -0.00183064
Ti       1.11125397       4.44791985      15.98473802  F      -0.00101241       0.02471083      -0.00801002
Ti       3.64560142       9.30452814      16.00427285  F       0.00242761       0.02600460      -0.00708716
Ti       0.17183233       1.86081603      16.73169627  F      -0.02180037      -0.00375736       0.00290111
Ti       2.70376262       6.73701924      16.71905608  F      -0.01434083      -0.00589345      -0.00299998
Ti       1.01039973       8.93464971      17.45839192  F       0.00399461       0.01557120       0.01252317
Ti       3.55654295       4.07214931      17.41430449  F       0.00366021       0.00359245       0.02025992
Ti       2.84344922       1.29040133      18.06171172  F       0.01752438      -0.00220688       0.01758928
Ti       0.27364834       6.17366534      18.05186770  F       0.01017492      -0.00943525       0.01520048
Ti       3.69002634       8.30023014      18.92917305  F       0.01250597       0.00778878       0.01292047
Ti       1.22200585       3.39951381      18.90653563  F       0.01350782       0.00226442       0.01975360
Ti       0.02013115       0.78059259      19.70891917  F      -0.00545363       0.00456204      -0.00974621
Ti       2.54233173       5.67672185      19.65127227  F      -0.00077816      -0.01453953      -0.00711795
Ti       3.77728340       3.20954438      20.05112342  F      -0.00833713      -0.01976850      -0.00062484
V        1.24077830       8.02641745      19.97800187  F      -0.01769671      -0.01140404       0.01124249
Ti       2.54303907       0.83156665      20.78639908  F       0.00529804       0.01818404      -0.01406687
Ti       5.08349304       5.83015045      20.76050585  F      -0.00112373       0.00966223      -0.01471386
Ti       1.62579935       3.72976414      21.61348843  F       0.02208910       0.00547248      -0.00938882
Ti       4.30893721       8.53488221      21.57491672  F       0.01744065       0.01252842      -0.00928438
Ti       4.72922340       1.84753200      22.31065202  F       0.00085272       0.00007605      -0.00306537
Ti       2.16365637       6.77018062      22.24074797  F       0.00529747       0.00797256       0.00551420
Ti       1.43509788       9.39776956      23.02183472  F       0.00441800      -0.02569195       0.00585237
Ti       3.94752294       4.55502964      22.98230541  F       0.00671980      -0.02534983       0.00202175
Ti       4.92100877       7.10854356      23.79066431  F      -0.02296070       0.01770295       0.01979826
Ti       2.38476830       2.24479657      23.76427314  F      -0.01982666       0.01326877       0.02026758
Ti       1.45101554       4.86515916      24.28520193  F      -0.02630501       0.00122257      -0.00029731
Ti       3.99103188       9.72979240      24.29462461  F      -0.02508387      -0.00263799      -0.00977873
Ti       2.35116209       7.51506995      25.04617929  F      -0.00253515      -0.02013211       0.01638166
Ti       4.88910222       2.65465370      25.04077848  F       0.00021820      -0.02680416       0.01408120
Ti       4.02852590       5.29073507      25.79440156  F       0.05507452       0.00655532       0.13790868
Ti       1.48106979       0.42606287      25.79612522  F       0.05692583       0.00564849       0.14584852
Ti       4.83702380       8.02162585      26.47632032  F      -0.09539444      -0.02616274       0.19713277
Ti       2.29430532       3.14700037      26.47578407  F      -0.09445033      -0.01482900       0.19276282
Ti       1.42206556       5.77981917      27.12181237  F       0.09848796       0.15224437       0.41942185
Ti       3.96727753       0.91055988      27.12790264  F       0.10221926       0.15675137       0.43139886
Ti       2.31337801       8.40221721      27.90098393  F       0.09923281       0.29048084       0.40303297
Ti       4.86200963       3.53383444      27.89830268  F       0.10193882       0.28735904       0.40406818
Ti       1.50398450       1.38016593      28.51384132  F      -0.23609651       0.13670893       0.15521520
Ti       4.04987836       6.24897722      28.51123668  F      -0.24134006       0.13908917       0.14957522
Ti       4.91182864       9.00618285      29.26206359  F      -0.75531992      -0.60389741      -0.56701615
Ti       2.36946638       4.14045883      29.25965047  F      -0.75473229      -0.60329568      -0.57662563
Ti       3.79249371       1.93346916      30.03866882  F       0.83656225       0.01830559      -1.04506413
Ti       1.24712908       6.80065403      30.03859221  F       0.83718074       0.02244575      -1.03195773
