64
Lattice="5.872 0.0 0.0 0.0 6.890708 0.0 0.0 0.0 43.394398" Properties=species:S:1:pos:R:3:move_mask:L:1:forces:R:3 job_name=RGS-1sol-T1g-V-V-32-d-0.00-V-32-d-0.00 top_level=RGS-1sol solute=V energy=-486.16226225 stress_kbar_3x3="_JSON [[-17.99154757, -0.00040583, -6.173e-05], [-0.00040583, -28.7848193, 1.87663318], [-6.175e-05, 1.87663318, -18.80957703]]" pbc="T T T"
Ti       4.40399413       5.21769922      34.65060038  F       0.00001022      -0.27705168      -0.45442351
Ti       1.46798238       5.21732023      34.65181542  F       0.00007657      -0.27651063      -0.46025433
Ti       5.87091955       3.19323678       8.55364337  F       0.00582582       0.15663724       0.97245453
Ti       2.93695714       3.19324367       8.55368676  F      -0.00561903       0.15654680       0.97238200
Ti       5.87199413       6.63296107       9.17400968  F      -0.00047694      -0.20825302       0.15851973
Ti       2.93600587       6.63295418       9.17400968  F       0.00046231      -0.20809755       0.15853928
Ti       4.40399413       1.76834861      10.46729292  F      -0.00003220       0.03790266      -0.51833761
Ti       1.46797064       1.76881029      10.46790045  F      -0.00006825       0.03841529      -0.52632871
Ti       1.46798826       4.59451048      10.68443849  F       0.00002496       0.12042975      -0.35917768
Ti       4.40401174       4.59282226      10.68534977  F      -0.00013045       0.11981166      -0.36179026
Ti       5.87156547       6.72400799      11.99651151  F       0.00488388      -0.10373074       0.01866481
Ti       2.93639930       6.72400799      11.99651151  F      -0.00488493      -0.10376695       0.01869269
Ti       2.93684557       2.86920812      12.61340627  F      -0.00281413      -0.08132212       0.10353973
Ti       5.87115443       2.86922190      12.61344967  F       0.00274181      -0.08142705       0.10346496
Ti       4.40400000       4.99840933      13.76921606  F      -0.00007185       0.04938673      -0.09042489
Ti       1.46797651       4.99981504      13.77012735  F       0.00005019       0.04801662      -0.09530026
Ti       4.40399413       0.92348580      14.25054673  F      -0.00004219       0.00353670       0.03886816
Ti       1.46798826       0.91919978      14.25197874  F      -0.00001288       0.01490291       0.04602415
Ti       2.93349266       3.07477861      15.43955323  F      -0.00768175      -0.03795785      -0.02989443
Ti       0.00248386       3.07479240      15.43959663  F       0.00771773      -0.03794248      -0.02991211
Ti       2.93715678       5.99729325      16.03496777  F       0.00005144      -0.00870930      -0.04748190
Ti       5.87081386       5.99727258      16.03509795  F      -0.00000223      -0.00850464      -0.04764281
Ti       4.40398826       1.26130276      17.21368980  F      -0.00005367      -0.01648477      -0.00162409
Ti       1.46800587       1.24676336      17.24046414  F       0.00002684      -0.01790398      -0.00581992
Ti       4.40405872       4.06939030      17.70452383  F      -0.00011806      -0.00017399       0.02912977
Ti       1.46795890       4.07307683      17.68391150  F       0.00011690       0.00793126       0.03550973
Ti       2.98802005       6.18407968      18.87534809  F      -0.00107361      -0.00971500      -0.00215612
Ti       5.82001518       6.18412791      18.87556506  F       0.00105813      -0.00957709      -0.00210010
Ti       2.96259429       2.34028427      19.43752251  F      -0.00843842      -0.00474632      -0.01878669
Ti       5.84541746       2.34025670      19.43747912  F       0.00842822      -0.00491673      -0.01830096
Ti       1.46802349       4.39973084      20.81611914  F      -0.00004447      -0.00887867       0.00684519
Ti       4.40399413       4.48597494      20.80956659  F       0.00010769      -0.01884884       0.00514612
V        4.40381797       0.48384484      20.86137950  F       0.00029001       0.00085988      -0.00644461
Ti       1.46825837       0.37883734      20.86910370  F      -0.00026602       0.00209931      -0.01000835
Ti       5.83546442       2.32209280      22.24001952  F       0.01495035       0.00395367       0.01172641
Ti       2.97261779       2.32213414      22.24001952  F      -0.01495060       0.00424959       0.01204032
Ti       5.81683256       6.06648974      22.79646589  F      -0.00480444      -0.00013572       0.01053649
Ti       2.99121442       6.06641395      22.79663947  F       0.00493848      -0.00009659       0.01069350
Ti       4.40408221       3.95445329      24.01129206  F      -0.00010213      -0.00079054      -0.01428190
Ti       1.46800000       3.94631536      24.03693815  F       0.00009408       0.01013720      -0.00756171
Ti       4.40406459       1.12067719      24.43178378  F      -0.00012640       0.00758600       0.00327961
Ti       1.46806459       1.10405680      24.39823991  F      -0.00009357      -0.00478794       0.01371195
Ti       0.00001762       5.83660194      25.64908343  F      -0.00313173       0.00533430      -0.00697146
Ti       2.93605872       5.83660194      25.64917022  F       0.00324407       0.00535993      -0.00700077
Ti       2.93598238       2.88346500      26.24054908  F      -0.00388492       0.01752784      -0.00698586
Ti       0.00008808       2.88349945      26.24050568  F       0.00392402       0.01748459      -0.00692761
Ti       4.40404110       0.71696439      27.41219782  F       0.00003870      -0.00716938       0.00918361
Ti       1.46802936       0.71145871      27.40998471  F       0.00002277       0.00140575       0.00743557
Ti       1.46803523       4.78027019      27.91353330  F       0.00000925      -0.00197941      -0.01326436
Ti       4.40404110       4.77863020      27.91687467  F      -0.00004637      -0.00019283      -0.00658851
Ti       2.93620552       2.60229655      29.08392361  F      -0.00218127      -0.02072430      -0.02573502
Ti       5.87183558       2.60228966      29.08388022  F       0.00224136      -0.02063867      -0.02556209
Ti       2.93584733       6.57165444      29.68406814  F      -0.00244197       0.04218320       0.02333072
Ti       0.00027011       6.57168200      29.68402474  F       0.00232263       0.04209403       0.02358585
Ti       4.40404110       4.39545860      30.87324822  F      -0.00002308       0.02420017       0.03132240
Ti       1.46804110       4.39663691      30.87246712  F      -0.00002321       0.02554710       0.02907925
Ti       4.40400587       1.57534677      31.35275632  F      -0.00000682       0.01179659      -0.02760823
Ti       1.46800000       1.57607719      31.35167146  F       0.00012179       0.01116937      -0.02298708
Ti       2.93544216       6.33121696      32.51147353  F       0.00209833      -0.06199687       0.74589686
Ti       0.00049912       6.33124453      32.51147353  F      -0.00209322      -0.06206972       0.74578416
Ti       5.87185907       3.28572386      33.12290060  F      -0.00058915       0.29883767       0.23096828
Ti       2.93619965       3.28570319      33.12294399  F       0.00037284       0.29889347       0.23088273
Ti       1.46797064       1.15455191      34.44191672  F       0.00005030       0.06054404      -0.77658820
Ti       4.40396477       1.15478619      34.44239406  F       0.00002827       0.06032006      -0.77296641
