64
Lattice="5.871999 0.0 0.0 0.0 6.890708 0.0 0.0 0.0 43.401158" Properties=species:S:1:pos:R:3:move_mask:L:1:forces:R:3 job_name=RGS-1sol-T1m-V-V-33-d-0.00-V-33-d-0.00 top_level=RGS-1sol solute=V energy=-486.11978746 stress_kbar_3x3="_JSON [[-18.28610222, 0.00047159, 0.0001334], [0.00047158, -28.01927551, -0.50568967], [0.00013338, -0.50568967, -19.18390596]]" pbc="T T T"
Ti       2.93604648       0.10241659       8.85635350  F      -0.00010164      -0.28684048       0.19071417
Ti       2.93604648       2.93839083       8.85639690  F      -0.00007247       0.12974900       0.98221139
Ti       5.87198138       0.10279558       8.85639690  F       0.00010930      -0.29033847       0.19144785
Ti       0.00003523       2.93721252       8.85639690  F      -0.00002963       0.13240578       0.98120618
Ti       4.40431047       5.02897651      10.27088404  F       0.00104006       0.21535126      -0.28097332
Ti       1.46771202       5.02897651      10.27084064  F      -0.00091861       0.21527392      -0.28062825
Ti       4.40404035       1.31920537      10.88943734  F      -0.00098127      -0.06102918      -0.69519527
Ti       1.46799388       1.31919848      10.88939394  F       0.00100237      -0.06098303      -0.69477556
Ti       2.93604648       3.41409086      12.06994884  F      -0.00021316       0.00825344       0.05886259
Ti       5.87199313       3.41270583      12.07359454  F       0.00022282       0.01759842       0.04840769
Ti       2.93604648       6.22998557      12.48521112  F      -0.00020121       0.01212630      -0.04219173
Ti       0.00002349       6.22919314      12.48212964  F       0.00008490       0.01184224      -0.03204843
Ti       1.46964978       1.49798479      13.70673671  F      -0.00645248       0.01829571       0.00900462
Ti       4.40241968       1.49799168      13.70669331  F       0.00647973       0.01831766       0.00956993
Ti       1.46887468       4.43911813      14.31135825  F      -0.00462196      -0.02148176       0.02830161
Ti       4.40317130       4.43908367      14.31135825  F       0.00465839      -0.02117784       0.02855146
Ti       2.93601712       6.60009928      15.47038617  F       0.00003449       0.01539824       0.02804186
Ti       0.00003523       6.59969273      15.46791230  F      -0.00016601       0.01052928       0.02463988
Ti       2.93602299       2.52825589      15.98130460  F       0.00005203      -0.02440353      -0.00864040
Ti       0.00002349       2.53158410      15.98000257  F      -0.00009609      -0.01851430      -0.01540198
Ti       4.40247253       4.69504591      17.15330947  F      -0.00481169       0.01269560       0.01047023
Ti       1.46953821       4.69501835      17.15326607  F       0.00482251       0.01284183       0.01074294
Ti       4.40613079       0.72691457      17.74543147  F      -0.00107255      -0.00017381       0.00061441
Ti       1.46590345       0.72691457      17.74538807  F       0.00107656      -0.00011602       0.00091637
Ti       5.87199313       2.89727398      18.93935393  F       0.00007499      -0.00735472      -0.00149911
Ti       2.93599950       2.87803512      18.96300756  F      -0.00006170      -0.00219311       0.01578823
Ti       5.87198138       5.71558044      19.41255675  F       0.00015094      -0.00651641      -0.00967480
Ti       2.93601124       5.71563556      19.38686327  F      -0.00014762      -0.00899689      -0.00379113
Ti       1.40955574       0.94117424      20.59437028  F       0.00828121      -0.01063874      -0.00246857
Ti       4.46242564       0.94117424      20.59437028  F      -0.00831331      -0.01059768      -0.00240975
Ti       1.44385996       4.02493834      21.15246578  F      -0.01082245       0.00418250      -0.00868675
Ti       4.42811555       4.02493145      21.15242237  F       0.01084456       0.00421199      -0.00852703
Ti       2.93599950       2.07032011      22.55710085  F      -0.00001787       0.00561157       0.00739241
V        5.87197551       2.18799273      22.55710085  F       0.00006774      -0.00625542       0.00915004
Ti       2.93599363       6.09217141      22.55701405  F      -0.00001379      -0.00261069       0.00052622
Ti       5.87198138       6.17581772      22.55701405  F       0.00008669       0.00208260      -0.00096028
Ti       4.42814491       4.02500036      23.96143212  F       0.01216673       0.00227814       0.00780263
Ti       1.44385409       4.02501414      23.96147552  F      -0.01217528       0.00219126       0.00763028
Ti       4.46249023       0.94116046      24.51961442  F      -0.01387120      -0.00701845      -0.00627409
Ti       1.40950290       0.94114668      24.51961442  F       0.01389655      -0.00695782      -0.00641603
Ti       2.93602299       5.71569069      25.72677422  F       0.00003302       0.01071384      -0.03020953
Ti       0.00001174       5.71558733      25.70112414  F      -0.00007564       0.00846997      -0.02112031
Ti       2.93600537       2.87799378      26.15067333  F       0.00004247      -0.01122863      -0.00340879
Ti       5.87199313       2.89725330      26.17432697  F      -0.00005869      -0.01361484       0.01058671
Ti       4.40613079       0.72694213      27.36824942  F      -0.00086074      -0.00598317       0.03240517
Ti       1.46588583       0.72696969      27.36820602  F       0.00091016      -0.00612182       0.03274662
Ti       4.40247840       4.69503902      27.96024122  F      -0.00751662      -0.03473389       0.01141775
Ti       1.46954996       4.69503213      27.96019781  F       0.00757723      -0.03471271       0.01191245
Ti       0.00001762       2.53163923      29.13350472  F       0.00011650       0.01475352      -0.04431808
Ti       2.93604648       2.52831791      29.13220269  F      -0.00014403       0.01101318      -0.05297201
Ti       5.87198726       6.59972718      29.64555158  F       0.00017680       0.04428418       0.10299111
Ti       2.93602886       6.60009239      29.64307772  F      -0.00010547       0.05160874       0.10527628
Ti       1.46886881       4.43915258      30.80219244  F      -0.00442999      -0.00017648      -0.06346154
Ti       4.40318891       4.43915258      30.80214904  F       0.00433042      -0.00028988      -0.06301532
Ti       1.46963804       1.49803303      31.40685738  F      -0.00023710      -0.02913068       0.01093790
Ti       4.40242555       1.49803992      31.40681398  F       0.00026220      -0.02915236       0.01126793
Ti       2.93604648       6.23004759      32.62851317  F      -0.00005187       0.14992020       0.55419881
Ti       0.00004698       6.22923449      32.63159465  F       0.00002136       0.14521159       0.54717541
Ti       2.93601712       3.41418733      33.04373205  F       0.00008593       0.13626196       0.25795125
Ti       0.00003523       3.41278162      33.04012975  F      -0.00006272       0.14227041       0.26388674
Ti       4.40404623       1.31923983      34.22437375  F      -0.00027542      -0.26274462      -0.17119423
Ti       1.46799975       1.31926050      34.22437375  F       0.00033500      -0.26295724      -0.17102364
Ti       4.40434570       5.02899029      34.84305726  F      -0.00334478      -0.01039688      -0.94173814
Ti       1.46772377       5.02899029      34.84305726  F       0.00328140      -0.01030277      -0.94172305
