52
Lattice="4.6568 0.0 0.0 0.0 7.770572 0.0 0.0 0.0 41.044546" Properties=species:S:1:pos:R:3:move_mask:L:1:forces:R:3 job_name=RGS-1sol-CSL7-V-V-26-d-0.72-V-26-d-0.72 top_level=RGS-1sol solute=V energy=-391.2803589 stress_kbar_3x3="_JSON [[-23.99252067, 2.82921794, -1.10668733], [2.82921793, -27.9289335, 0.25667862], [-1.10668733, 0.25667863, -23.84316533]]" pbc="T T T"
Ti       1.81641278       7.39653552       8.70973475  F       1.24421949      -0.78892195       0.11654087
Ti       4.63123417       5.59530139       9.37424595  F       0.22471676      -0.00307077      -0.09131855
Ti       2.45881368       2.27614818       9.62285277  F      -0.65442091       0.37343566       0.90347356
Ti       4.56652328       0.62021597      10.08739494  F      -0.01720324      -0.33819123       0.49425323
Ti       2.35780769       5.00650960      10.83682730  F       0.05394100      -0.01790591      -0.74402719
Ti       0.02265068       3.33341221      11.03121427  F      -0.00329303      -0.01161869      -0.06164298
Ti       2.31290217       0.00906826      11.66005776  F      -0.06881796       0.22653633      -0.34625776
Ti       0.03071625       6.09894324      12.10485751  F       0.03774711       0.03776826      -0.22716581
Ti       2.34061013       2.75981966      12.62505608  F       0.00856879      -0.07621670      -0.10210627
Ti       0.00385583       1.10926469      13.00763230  F      -0.05063201      -0.03357505       0.03619432
Ti       2.34704583       5.55977433      13.63208402  F       0.02546870       0.04295736       0.04106758
Ti       0.01187484       3.86632580      13.97616045  F       0.02310047      -0.00579943      -0.06463427
Ti       2.33972999       0.55485769      14.59691816  F       0.00183962       0.00776446      -0.00430741
Ti       0.01630346       6.62860874      14.93327822  F       0.02842750       0.00286365      -0.04622606
Ti       2.34803307       3.30910586      15.57665147  F       0.00692961      -0.02561773       0.00714714
Ti       0.03414366       1.66102193      15.93792557  F      -0.00146194      -0.03266173      -0.02333989
Ti       2.35480871       6.08691439      16.46025846  F      -0.00328923       0.00394031      -0.01342639
Ti       4.65639486       4.42070172      16.92061409  F      -0.00225552       0.00177784       0.00749910
Ti       2.38515708       1.08874261      17.53410692  F       0.00670945      -0.01577651      -0.00203782
Ti       0.04111023       7.18311676      17.72003871  F       0.00413695      -0.00679046       0.02137971
Ti       2.24810745       3.80528796      18.54934376  F       0.01719628       0.01646123       0.02304348
Ti       0.14656812       2.13627011      18.89050603  F       0.00829542       0.00320037       0.00572868
Ti       2.29869893       6.56307173      19.19284016  F      -0.00525499      -0.01454689       0.02522582
Ti       4.29103630       4.80480110      19.86675056  F       0.00041768       0.00001346      -0.02003865
Ti       2.71871435       1.59048845      20.52555656  F      -0.00105872      -0.01926473       0.00123697
Ti       0.40729304       7.63350688      20.54915718  F      -0.00153053      -0.02571062      -0.00231548
V        1.27420759       4.83913148      21.22663845  F       0.00216105       0.00109446      -0.01433936
Ti       3.10600178       6.53151544      21.90153392  F      -0.00134022      -0.00099293      -0.01558067
Ti       0.61692821       2.22819598      22.08508513  F      -0.00925533       0.00006717      -0.00362566
Ti       3.12909485       3.82002097      22.50616113  F       0.00511611       0.01565678      -0.01206844
Ti       0.69521367       7.22435518      23.34634299  F       0.00162499      -0.00326958      -0.02097977
Ti       3.00352889       1.12081176      23.47300646  F      -0.00263571      -0.00133516       0.01288120
Ti       0.75273912       4.48769959      24.09663729  F      -0.00025737       0.00394252       0.00882249
Ti       3.03463632       6.14105974      24.61933958  F      -0.01666674       0.01178021       0.01294826
Ti       0.70314420       1.70744333      25.07452360  F       0.00811793      -0.01671305       0.01475182
Ti       3.04900720       3.34082533      25.45734608  F      -0.01481709      -0.00905831       0.00407204
Ti       0.71946163       6.66545679      26.13129752  F      -0.01535689       0.00522466       0.02434684
Ti       3.05484683       0.59664006      26.43457567  F       0.01739146       0.00231338      -0.01453943
Ti       0.72880317       3.89004936      27.05348638  F       0.01432511      -0.01355478      -0.02207070
Ti       3.05032042       5.57980687      27.42136865  F      -0.03845912       0.00387524       0.05634781
Ti       0.73687806       1.12988002      28.02776077  F       0.04046481      -0.01385446      -0.10544992
Ti       3.06148743       2.77874101      28.41579591  F      -0.06275479      -0.04535199       0.08841005
Ti       0.71318426       6.10716450      28.94974441  F      -0.03963300      -0.08787701       0.24174016
Ti       3.09291151       0.02125251      29.37057414  F       0.03335080       0.04388574       0.35072649
Ti       0.72550150       3.34340516      30.00910414  F      -0.18842565       0.17238301       0.45934212
Ti       3.04938906       5.01682892      30.21584552  F       0.18695166       0.13716401       0.60139907
Ti       0.84246634       0.62314548      30.94922947  F      -0.00098184       0.20159355       0.31157375
Ti       2.94952864       2.28056964      31.41615222  F       0.55626491       0.37907344      -0.16464487
Ti       0.77556676       5.59560444      31.67797538  F       0.12445165      -0.27460288      -0.12141861
Ti       3.59188763       7.39845485      32.32968068  F      -0.98647543       0.20526144      -0.45509069
Ti       0.37404815       2.79589843      33.04348638  F       0.31335494      -0.60728986      -1.79155724
Ti       2.70357044       4.56887876       8.00335811  F      -0.80901302       0.58953385       0.62005731
