34
Lattice="5.088765 0.0 0.0 0.0 9.739025 0.0 0.0 0.0 22.303587" Properties=species:S:1:pos:R:3:forces:R:3 job_name=Slab-1sol-T2-Al-SLAB-Al-SLAB-16 top_level=Slab-1sol solute=Al energy=-248.52900584 stress_kbar_3x3="_JSON [[-25.72513181, -0.00380818, -0.00237612], [-0.00380821, -17.01810222, 0.01354749], [-0.00237614, 0.01354748, -0.55877206]]" pbc="T T T"
Ti       4.80838693       0.73760357       0.59029196       0.00471819       0.00381565       0.00675964
Ti       2.29319705       5.62337325       0.64193701       0.01088674       0.00797038       0.00792980
Ti       4.21830547       3.63891163       1.16493935      -0.00562066      -0.00494517      -0.00425045
Ti       1.64984811       8.49848594       1.17257121      -0.00838163       0.00245536      -0.00306917
Ti       2.40650002       1.34246700       1.75710342       0.00084125      -0.00274050       0.01392613
Ti       4.99119931       6.21141326       1.79592628       0.00960749       0.00383529       0.01356208
Ti       1.44526535       3.93470000       2.51655328      -0.00126343      -0.00294366       0.00989309
Ti       3.98697256       8.81005122       2.47078557       0.00162994       0.00397933      -0.00111345
Ti       4.81616146       1.72857799       3.10027158      -0.00039013      -0.01649085       0.00482566
Ti       2.31212618       6.62533342       3.15706849       0.00519244       0.00192404       0.01229717
Ti       1.50900017       9.29466246       3.78914102      -0.00565955       0.00141471       0.00268970
Ti       4.04804551       4.39124255       3.78613419      -0.01366118       0.00311204       0.01035546
Ti       4.80814055       7.11863628       4.56776937       0.00368465      -0.00050573       0.00629999
Ti       2.27741898       2.21283899       4.56747243      -0.00223845      -0.00645145       0.00783068
Ti       1.43153761       4.89252559       5.26989197       0.00609331      -0.00499422       0.00295799
Ti       3.95490524       0.01392436       5.26434163      -0.00392063      -0.00763527      -0.00570940
Al       2.28325872       7.52308317       5.92428388      -0.00216551       0.00043826      -0.00016758
Ti       4.86407868       2.65368492       5.92414397      -0.00080651      -0.00034709      -0.00010670
Ti       3.95500907       5.29357424       6.58403377      -0.00393100       0.00737251       0.00625228
Ti       1.43144965       0.41483449       6.57845552       0.00595345       0.00426330      -0.00382935
Ti       4.80811541       7.92814625       7.28058341       0.00369249       0.00173230      -0.00585929
Ti       2.27729961       3.09460309       7.28104027      -0.00285832       0.00481392      -0.00820832
Ti       1.50901113       5.75223319       8.05969408      -0.00633551      -0.00110109      -0.00220940
Ti       4.04796365       0.91619380       8.06244069      -0.01318144      -0.00445273      -0.01130664
Ti       2.31220443       8.42162075       8.69159172       0.00499865      -0.00148025      -0.01349327
Ti       4.81603142       3.57891268       8.74857435      -0.00079701       0.01616816      -0.00478950
Ti       1.44506638       1.37300107       9.33223221      -0.00084881       0.00258974      -0.01028632
Ti       3.98671687       6.23676541       9.37808433       0.00186786      -0.00201026       0.00226524
Ti       4.99142299       8.83530589      10.05292075       0.01014792      -0.00484399      -0.01363595
Ti       2.40639146       3.96512914      10.09188064       0.00071294       0.00339389      -0.01344629
Ti       4.21805662       1.66831522      10.68367908      -0.00543083       0.00469674       0.00412259
Ti       1.64984057       6.54875557      10.67639074      -0.00815292      -0.00127080       0.00341201
Ti       2.29333849       9.42349112      11.20658382       0.01156096      -0.00860604      -0.00724790
Ti       4.80831385       4.57005824      11.25869613       0.00405525      -0.00315651      -0.00665055
