34
Lattice="5.088765 0.0 0.0 0.0 9.739025 0.0 0.0 0.0 22.303587" Properties=species:S:1:pos:R:3:forces:R:3 job_name=Slab-1sol-T2-Al-SLAB-Al-SLAB-13 top_level=Slab-1sol solute=Al energy=-248.56217716 stress_kbar_3x3="_JSON [[-25.27760414, -0.1982355, -0.14098063], [-0.19823552, -17.43323952, -0.10342764], [-0.14098064, -0.10342766, -0.42292594]]" pbc="T T T"
Ti       4.89361079       0.78813250       0.67041372       0.00783180       0.00890901      -0.00284964
Ti       2.27331526       5.57315893       0.64136775       0.00232190      -0.01233887      -0.00057412
Ti       4.24176649       3.61368290       1.12971169       0.01142987      -0.00776957       0.00623810
Ti       1.66263220       8.53706694       1.15758714       0.00825661       0.01366227       0.00482337
Ti       2.48481266       1.38554964       1.78621639       0.00263473       0.00304076       0.00761066
Ti       4.96079657       6.20413282       1.73815694      -0.00164592      -0.00521343       0.01016556
Ti       1.35460407       3.93903261       2.56835652      -0.01238761      -0.00886596       0.00750184
Ti       3.99478481       8.78278215       2.48631506       0.00568588      -0.00954426      -0.00190060
Ti       4.81104171       1.74725891       3.18607584       0.00650860       0.01084498       0.01129053
Ti       2.26083214       6.62395474       3.11929108      -0.00368290       0.01379618       0.00584739
Ti       1.51115444       9.28444486       3.77133918      -0.00708639       0.00796851      -0.00516732
Ti       3.91839254       4.41566156       3.73648270      -0.01031591       0.00252523      -0.00458118
Ti       4.84592290       7.09819792       4.54823617       0.00467903      -0.00612668      -0.00894692
Al       2.29038553       2.19584320       4.55740682      -0.00433441      -0.00279704       0.00052700
Ti       1.46265837       4.84803405       5.24034061       0.00238926      -0.00253820      -0.00416727
Ti       3.96806602       9.73515619       5.26107169      -0.00562949      -0.00190739      -0.01062382
Ti       2.29789270       7.54318040       5.90176387       0.00378479       0.00409666      -0.01006779
Ti       4.83518230       2.67042021       5.89654589       0.00311691       0.00533455      -0.00387852
Ti       4.01197586       5.30882427       6.61115826       0.00057319      -0.00279262       0.01120135
Ti       1.43188537       0.41351573       6.57726536       0.00106615       0.00480544       0.00359679
Ti       4.82926379       7.95026257       7.29845707       0.00217170      -0.00290297       0.00869927
Ti       2.32117893       3.06681815       7.28492280       0.00635190      -0.00458166       0.00096002
Ti       1.50692542       5.75651607       8.03873513      -0.01433599      -0.00404502       0.00486413
Ti       4.06237300       0.87295078       8.07879883      -0.00991200      -0.00423629       0.00119339
Ti       2.26581252       8.43870590       8.72762314      -0.00872534      -0.00139338      -0.00360402
Ti       4.84192701       3.56066946       8.72640111      -0.00322078       0.00215387      -0.00700333
Ti       1.44281974       1.37350256       9.34511575      -0.00019476      -0.00109734      -0.00236481
Ti       3.97715068       6.24934604       9.34897769       0.00367686      -0.00036419       0.00545979
Ti       4.95816544       8.83900654      10.10214674       0.00435464      -0.00293609      -0.00476867
Ti       2.42161618       3.96564486      10.06808719       0.00374562       0.00524376      -0.00589443
Ti       4.19764887       1.68006089      10.68533440      -0.00327475      -0.00099552       0.00013270
Ti       1.64104514       6.54285180      10.66740302      -0.00158605      -0.00266542      -0.00722996
Ti       2.27240470       9.43894907      11.23919979       0.00210178      -0.00325473      -0.00233925
Ti       4.81053533       4.56816550      11.23120275       0.00365113       0.00598541      -0.00415021
