36
Lattice="5.871999 0.0 0.0 0.0 6.890708 0.0 0.0 0.0 27.401158" Properties=species:S:1:pos:R:3:forces:R:3 job_name=Slab-1sol-T1m-V-SLAB-V-SLAB-16 top_level=Slab-1sol solute=V energy=-270.18210777 stress_kbar_3x3="_JSON [[-8.93013421, -0.00048532, -0.00053875], [-0.00048534, -26.85172004, -0.31549388], [-0.00053872, -0.3154939, -0.26916953]]" pbc="T T T"
Ti       2.93597219       6.06985786       0.42642838       0.00036325      -0.00014528       0.00059680
Ti       4.42101380       3.92411304       1.61467074       0.00133119       0.00158018       0.00224772
Ti       1.45098969       3.92410087       1.61468127      -0.00128905       0.00104256       0.00219545
Ti       4.40673809       0.98609616       1.96805091       0.00040124       0.00098942       0.00239040
Ti       1.46531710       0.98610559       1.96801636      -0.00042763       0.00131739       0.00258699
Ti       2.93599538       5.78951846       3.23174741       0.00012102      -0.00096589       0.00517609
Ti       0.00003766       5.78492267       3.24751511      -0.00010152      -0.00442246       0.00274088
Ti       2.93601903       2.83561736       3.75999193      -0.00017510      -0.00054610       0.00129436
Ti      -0.00000074       2.82542071       3.77623798       0.00015157       0.00248702       0.00144887
Ti       4.38536804       0.67683111       4.93885600      -0.00345674       0.00960631      -0.00538662
Ti       1.48663281       0.67681278       4.93879517       0.00342842       0.00959566      -0.00569038
Ti       4.38444169       4.75185984       5.45607214       0.00027756      -0.00498432      -0.01914163
Ti       1.48759008       4.75183325       5.45611210      -0.00025696      -0.00489454      -0.01938224
Ti       0.00003861       2.60475311       6.58742034      -0.00023998      -0.00609371      -0.01672818
Ti       2.93599969       2.53119062       6.56183179       0.00027469      -0.00538404      -0.01474375
Ti       0.00010614       6.56432023       7.14968535      -0.00010347       0.00423240       0.01806541
V        2.93589817       6.54492218       7.10071450       0.00006038       0.00114604       0.00906444
Ti       1.49968217       4.42520637       8.26828809       0.00063599       0.00451316       0.01779834
Ti       4.37233652       4.42520131       8.26829047      -0.00055965       0.00460385       0.01763471
Ti       1.47151537       1.51513871       8.77238761       0.00350696      -0.00964701       0.00248555
Ti       4.40052156       1.51502850       8.77221805      -0.00366813      -0.00932874       0.00265536
Ti       2.93600707       6.27770896       9.89648298       0.00001228      -0.00013003      -0.00515015
Ti       0.00005058       6.30714176       9.97651016      -0.00001407      -0.00186553      -0.00416618
Ti       2.93601379       3.32126040      10.45929520       0.00010126       0.00238422      -0.00164343
Ti       0.00003176       3.30739599      10.43284403      -0.00005230       0.00956403      -0.00282324
Ti       4.39177856       1.24287244      11.73070039      -0.00102330       0.00059368       0.00449379
Ti       1.48024944       1.24294196      11.73079310       0.00109535       0.00037271       0.00452363
Ti       4.37119163       5.17641702      12.07662031       0.00059568      -0.00490281       0.00321843
Ti       1.50088323       5.17638768      12.07664761      -0.00062594      -0.00474267       0.00327226
Ti       2.93602723       6.83073606      13.68486365      -0.00008062      -0.00118475      -0.00142987
Ti       2.93607086       3.05672860      13.30330018      -0.00006196       0.00016093       0.00368177
Ti       0.00000350       6.83159705      13.63618121       0.00013457       0.00002735      -0.00473588
Ti       0.00000849       3.04387148      13.25584885       0.00003420      -0.00198562      -0.00312954
Ti       2.93604157       2.26954837       0.03330613      -0.00026447       0.00408001      -0.00176486
Ti      -0.00000678       2.26687715       0.01845976       0.00019855       0.00351873      -0.00255386
Ti       0.00002198       6.06523442       0.41830983      -0.00032326      -0.00059214       0.00089857
