36
Lattice="5.871999 0.0 0.0 0.0 6.890708 0.0 0.0 0.0 27.401158" Properties=species:S:1:pos:R:3:forces:R:3 job_name=Slab-1sol-T1m-Al-SLAB-Al-SLAB-15 top_level=Slab-1sol solute=Al energy=-266.36718794 stress_kbar_3x3="_JSON [[-10.79949339, -0.00025736, -0.00076999], [-0.00025739, -25.83437512, 0.33089325], [-0.00076999, 0.33089325, -1.35831109]]" pbc="T T T"
Ti       2.93598285       6.05975633       0.40089169       0.00004356      -0.00552317       0.00276405
Ti       4.40578506       3.90459066       1.56896854       0.00114725       0.00408740       0.00818846
Ti       1.46623134       3.90454209       1.56903986      -0.00110952       0.00421056       0.00794659
Ti       4.39513396       0.98114099       1.94606610      -0.00023085      -0.00874595       0.01134820
Ti       1.47684343       0.98105970       1.94601281       0.00034446      -0.00850597       0.01213275
Ti       2.93600932       5.76893527       3.21763837       0.00006899       0.00063781       0.01082450
Ti       0.00000163       5.76365221       3.17317528       0.00008436       0.00031079       0.01197731
Ti       2.93605684       2.82261925       3.75377288      -0.00004693      -0.00074615       0.00591636
Ti      -0.00000690       2.80807187       3.75577861       0.00007458      -0.00435778       0.00903808
Ti       4.41925173       0.67861662       4.87892888       0.00143419      -0.00056217       0.00808130
Ti       1.45282701       0.67863743       4.87895579      -0.00162268      -0.00048286       0.00794210
Ti       4.43510597       4.75040164       5.44053849       0.00035579       0.00381708       0.00412738
Ti       1.43697140       4.75030980       5.44057375      -0.00037454       0.00401477       0.00397877
Ti       5.87188625       2.52609740       6.55932618       0.00041474      -0.00198683       0.00146916
Ti       2.93612503       2.62781308       6.58188623      -0.00048952      -0.00236349       0.00155415
Al       0.00003657       6.59901059       7.13025223      -0.00003884      -0.00216656      -0.00464980
Ti       2.93607030       6.60525732       7.16953965      -0.00005177      -0.00101293      -0.01004835
Ti       1.44524991       4.42896676       8.28453682      -0.00140817      -0.00771369      -0.01214709
Ti       4.42680121       4.42890476       8.28445127       0.00148807      -0.00747861      -0.01188686
Ti       1.47048682       1.53520246       8.80548279       0.00046019       0.01356057      -0.01293871
Ti       4.40157643       1.53523718       8.80550739      -0.00054401       0.01346821      -0.01287604
Ti       2.93604856       6.29385532      10.03779585      -0.00020842       0.00295976      -0.00922527
Ti      -0.00003480       6.27861002       9.95524470       0.00026279       0.00346247      -0.01054403
Ti       2.93605631       3.31750740      10.46794731      -0.00004199       0.00058606      -0.01421212
Ti       5.87196009       3.34930397      10.46162839       0.00012107      -0.00278549      -0.01617505
Ti       4.42121497       1.24727107      11.75470347       0.00150030       0.01272533      -0.00774403
Ti       1.45077176       1.24730167      11.75466744      -0.00133122       0.01269873      -0.00789319
Ti       4.43343422       5.17264304      12.12245683       0.00294501      -0.01214061       0.00601428
Ti       1.43860033       5.17258195      12.12242514      -0.00296617      -0.01200285       0.00591413
Ti       2.93598398       6.83815107      13.66972815      -0.00005943       0.00002120       0.00001873
Ti       2.93598337       3.02362027      13.29659341       0.00010725       0.00626481       0.00310399
Ti       0.00005634       6.84248636      13.70807734      -0.00009567       0.00143172       0.00603640
Ti       0.00006337       3.04485250      13.32144788      -0.00019694       0.00584072       0.00483657
Ti       2.93599232       2.24519962      27.38431293       0.00001285      -0.00266538      -0.00397789
Ti       0.00001508       2.25291924      27.38558847      -0.00004125      -0.00406781      -0.00208818
Ti       0.00001189       6.06044315       0.37655020      -0.00000754      -0.00478968       0.00319336
