36
Lattice="5.871999 0.0 0.0 0.0 6.890708 0.0 0.0 0.0 27.401158" Properties=species:S:1:pos:R:3:forces:R:3 job_name=Slab-1sol-T1m-V-SLAB-V-SLAB-15 top_level=Slab-1sol solute=V energy=-270.18145384 stress_kbar_3x3="_JSON [[-8.75711433, 0.00052505, -0.00118049], [0.00052503, -26.71736074, -0.24848468], [-0.00118051, -0.24848466, -0.42351498]]" pbc="T T T"
Ti       2.93602151       6.06610816       0.41509389      -0.00019684      -0.00087740       0.00899535
Ti       4.38664292       3.92220248       1.61220600      -0.00156851       0.01648548       0.01076574
Ti       1.48538040       3.92222481       1.61228465       0.00165673       0.01656949       0.01036815
Ti       4.40104525       0.98798247       1.96687546       0.00090726      -0.01014690       0.00213160
Ti       1.47093848       0.98795630       1.96682774      -0.00095775      -0.01018148       0.00271074
Ti       2.93600260       5.78227313       3.24260171      -0.00023802       0.00073998       0.01420037
Ti       0.00001893       5.78748329       3.22791937       0.00011846       0.00396836       0.01430004
Ti       2.93598967       2.82661714       3.76977339      -0.00006771       0.00093716       0.01751680
Ti       0.00001352       2.83640639       3.75369319       0.00006864       0.00011610       0.01512430
Ti       4.42252816       0.67849624       4.93466288      -0.00062451      -0.00403314       0.00671535
Ti       1.44947809       0.67851112       4.93466708       0.00084768      -0.00414840       0.00647269
Ti       4.42314931       4.75013601       5.45102833      -0.00141066       0.00291939      -0.00339506
Ti       1.44886093       4.75018637       5.45094148       0.00161203       0.00292678      -0.00302840
Ti       0.00004947       2.52951160       6.55813044       0.00005879       0.00309491      -0.00253856
Ti       2.93602222       2.60209798       6.58340562      -0.00019202       0.00172919      -0.00385101
V        0.00005805       6.54559376       7.10197025       0.00012726      -0.00128125      -0.00907276
Ti       2.93595351       6.56532373       7.15403604      -0.00021168      -0.00588045      -0.01378982
Ti       1.43633162       4.42607452       8.27221118      -0.00038710       0.00128002      -0.00917935
Ti       4.43569257       4.42611151       8.27223317       0.00043666       0.00130352      -0.00929045
Ti       1.46447584       1.51338574       8.77586869      -0.00236396      -0.00112623      -0.00480988
Ti       4.40755762       1.51343433       8.77584487       0.00237460      -0.00142468      -0.00463466
Ti       2.93599850       6.30673949       9.98187889       0.00011285      -0.00234721       0.00181104
Ti       0.00006819       6.27677734       9.90096055      -0.00013785       0.00137986      -0.00758278
Ti       2.93606319       3.31000075      10.43601717      -0.00004574      -0.00486011       0.00337894
Ti       5.87198391       3.32381142      10.46275699       0.00008870      -0.00810686       0.00542567
Ti       4.41605410       1.24291013      11.73279477      -0.00146332       0.00334135      -0.00031402
Ti       1.45604851       1.24292278      11.73285444       0.00125067       0.00329401      -0.00094682
Ti       4.43724465       5.17680681      12.08094424      -0.00040447      -0.00590712      -0.01045965
Ti       1.43481433       5.17684688      12.08091868       0.00016070      -0.00626617      -0.01016545
Ti       2.93602470       6.83325848      13.63971301       0.00020172      -0.00030504      -0.01458031
Ti       2.93602777       3.04213092      13.25969013       0.00009564       0.00001001      -0.01588835
Ti       0.00004236       6.83175179      13.68995884      -0.00009204      -0.00029925      -0.01193091
Ti       0.00002359       3.05611083      13.30994946       0.00001922       0.00418980      -0.01273056
Ti       2.93597447       2.26688566       0.01463768      -0.00012346       0.00227753       0.00632346
Ti       0.00000917       2.26969976       0.02969858       0.00016733       0.00176708       0.00960692
Ti       5.87199583       6.07079990       0.42312625       0.00018067      -0.00113833       0.01234162
