54
Lattice="4.4265 -2.555641 0.0 3.767997 6.526363 -0.031456 0.0 0.0 45.781652" Properties=species:S:1:pos:R:3:forces:R:3 job_name=Slab-1sol-CSL13-V-SLAB-V-SLAB-31 top_level=Slab-1sol solute=V energy=-409.87459222 stress_kbar_3x3="_JSON [[-17.17833866, -0.53673911, 1.07035491], [-0.53673909, -17.4727019, 1.52290875], [1.07035494, 1.52290877, -0.62013442]]" pbc="T T T"
Ti       5.43752298       4.33090013       0.84713896      -0.00620450      -0.00986941       0.00169713
Ti       5.07855459       0.17024694       0.83595961      -0.00266624      -0.01185421       0.00101775
Ti       2.22516550       0.52897992       1.54658079      -0.00819595      -0.00885266       0.00037368
Ti       2.71749375       4.57272840       1.52426786      -0.00333811      -0.01287329       0.00079908
Ti       3.95757256      -1.83579085       2.43283146      -0.00674458      -0.00867870      -0.00147429
Ti       4.28655421       2.30405947       2.42658332      -0.00200552      -0.01082934       0.00103811
Ti       1.50291084       2.59208021       3.42410144      -0.00256721      -0.00741204      -0.00054409
Ti       4.86633107       4.93372010       3.43815780      -0.00595141      -0.00447216      -0.00157021
Ti       3.13008684       0.27527606       4.28669756      -0.00359190      -0.00591508       0.00078872
Ti       6.47662288       2.73339927       4.27993964      -0.00175147      -0.00510067      -0.00029241
Ti       0.34014358       0.54286748       5.17482810      -0.00229436      -0.00456572       0.00176607
Ti       3.76674029       2.94071142       5.16049063      -0.00263478      -0.00345268       0.00110814
Ti       5.29752410       0.63429398       6.11386219      -0.00385946      -0.00242049       0.00528655
Ti       5.75695451       4.83801367       6.11677339      -0.00418494      -0.00269803       0.00273433
Ti       2.91848805       5.01743468       6.94473015      -0.00399082      -0.00316437       0.00703320
Ti       2.52529192       1.01499496       6.96948301      -0.00278351      -0.00250578       0.00737200
Ti       4.60903859       2.75779894       7.86151811      -0.00092360      -0.00196241       0.00750897
Ti       4.24354636      -1.38563550       7.86866479      -0.00609299      -0.00140032       0.00532820
Ti       6.20485538       0.56706218       8.81584258      -0.00293038       0.00005295       0.00371383
Ti       5.06467733       5.39776418       8.81355367      -0.00201694      -0.00006837       0.00417133
Ti       3.35310269       0.66380144       9.65177520      -0.00340154      -0.00113182       0.00361229
Ti       6.76511809       3.27459608       9.65861108      -0.00166854       0.00167028       0.00600496
Ti       4.04232270       3.34170275      10.52973898      -0.00562119       0.00035803       0.00242241
Ti       0.65085321       1.02431669      10.54308884      -0.00122437       0.00184276       0.00168087
Ti       2.17359471      -1.16966281      11.58943777      -0.00102866      -0.00107348      -0.00659306
Ti       5.48350718       1.07978139      11.47929813      -0.00106252       0.00686028      -0.00161303
Ti       3.17922970       5.36896502      12.32730946      -0.00010679       0.00480069      -0.00358657
Ti       2.82821919       1.51765462      12.34769963       0.00019176       0.00138550      -0.00551983
Ti       4.90237921       3.26949916      13.20753756       0.00184244       0.00528024      -0.00167191
Ti       4.48212568      -1.07506935      13.22914614      -0.00593212       0.00444542      -0.00469202
Ti       6.31240542       0.99942941      14.12340526      -0.00237843       0.00203407      -0.00474210
V        1.42887320      -0.66493749      14.17305595       0.00640851       0.00654426      -0.00906241
Ti       7.05740141       3.67722615      14.99061548       0.00292057      -0.00273008      -0.00327412
Ti       3.54235208       0.97253286      14.98437905       0.00655591       0.00471993      -0.00259639
Ti       4.09638001       3.70846854      15.84842312       0.00097101       0.00651935      -0.00277089
Ti       0.92003528       1.48452167      15.89942237      -0.00173035       0.00121273      -0.00594047
Ti       5.74006757       1.62648457      16.74431664       0.00421892       0.00480736      -0.00876001
Ti       2.29114398      -0.85364111      16.73481837       0.00111773      -0.00041502      -0.00650188
Ti       7.78899382       3.28812008      17.67249822       0.00514290       0.00287008      -0.00365374
Ti       3.08838586       1.80729335      17.67988306       0.00381794       0.00164152      -0.00085062
Ti       5.05434009       3.68799448      18.55308908       0.00228389       0.00833773      -0.00162153
Ti       4.52444984      -0.55341920      18.54427340       0.00139145       0.00555980      -0.00527309
Ti       6.54375721       1.33043148      19.42187755       0.00675697       0.00259272      -0.00230846
Ti       1.80460153      -0.14756386      19.38597547       0.00812256       0.00724107      -0.00636512
Ti       7.30276810       3.97065413      20.40401416       0.00950393       0.00688423       0.00034190
Ti       3.84285469       1.56516504      20.40717027       0.00563692       0.00928514       0.00591641
Ti       4.28408310       4.23636912      21.26541964       0.00165425       0.00505639       0.00637010
Ti       5.51500941      -0.65760325      21.32977564       0.01389876       0.00591901       0.00778045
Ti       3.72335356       6.38744331      22.94041927       0.01013160       0.00591404      -0.00425224
Ti       3.22375807       2.24516619      22.94754670       0.00506624       0.00722687      -0.01006776
Ti       2.60641649      -0.43764353      21.96335564       0.00507008       0.01039424       0.00227902
Ti       6.08030987       2.04191370      22.01670248       0.00424429       0.00402273       0.00411380
Ti       3.40126275       2.50128418      45.66697497      -0.00389850      -0.00837932       0.00620001
Ti       0.08491487       0.04917854      45.67459471      -0.00416696      -0.01365396       0.00713890
