54
Lattice="4.4265 -2.555641 0.0 3.767997 6.526363 -0.031456 0.0 0.0 45.781652" Properties=species:S:1:pos:R:3:forces:R:3 job_name=Slab-1sol-CSL13-Al-SLAB-Al-SLAB-31 top_level=Slab-1sol solute=Al energy=-406.07211262 stress_kbar_3x3="_JSON [[-19.13348496, -0.90219077, -0.06542807], [-0.90219078, -20.22694721, 0.05742277], [-0.0654281, 0.05742276, -0.89290586]]" pbc="T T T"
Ti       5.32581610       4.19245771       0.79772552      -0.00482434       0.00081787       0.00385406
Ti       4.96899821       0.04100321       0.80626631       0.00209647      -0.00158701       0.00853688
Ti       2.11481842       0.39101673       1.50072143       0.00181767      -0.00085104       0.00234711
Ti       2.62375737       4.43680652       1.48796842      -0.00195625      -0.00140447       0.00023418
Ti       3.82461221      -1.96130208       2.39329394      -0.00440905       0.00206719       0.00789998
Ti       4.16657747       2.19548586       2.38065606      -0.00017649      -0.00051002      -0.00043331
Ti       5.80613182      -0.11552826       3.39893245      -0.01130879       0.00012252       0.00090921
Ti       4.76338319       4.84097568       3.38702303       0.00453535      -0.00162319       0.00319577
Ti       3.06062526       0.15855235       4.24564362       0.00148636      -0.00279447       0.00251458
Ti       6.37935403       2.59509635       4.22910164       0.00059492      -0.00214689      -0.00162214
Ti       4.63540741      -2.08773601       5.13999310       0.00039382       0.00297283       0.00137243
Ti       3.62522452       2.83118646       5.12671543      -0.00391273      -0.00428916      -0.00038202
Ti       5.22152519       0.57862411       6.08746716       0.00050704       0.00352701       0.00418086
Ti       5.64354122       4.67033626       6.07891485       0.00561861      -0.00454444       0.00111802
Ti       2.88455154       4.95778596       6.89448548       0.00570388       0.00632665       0.00016413
Ti       2.42210121       0.85393183       6.91815651       0.00055282      -0.00391183      -0.00691528
Ti       4.45415930       2.70856876       7.84041138      -0.00142786       0.00637502       0.00079453
Ti       4.08789690      -1.44073835       7.85658548      -0.00289979       0.00024563      -0.00531813
Ti       1.71160411       2.94085565       8.77245590       0.00393203      -0.00581513      -0.00297872
Ti       5.04475231       5.37910894       8.78561460       0.00773208       0.00707782       0.00885640
Ti       3.35875613       0.69878857       9.61194591       0.00557967       0.00702671      -0.00038388
Ti       6.68221148       3.08044741       9.59466028      -0.00051279      -0.00388360      -0.00985449
Ti       3.91932024       3.36513828      10.56911383       0.00233902       0.00480359       0.00035314
Ti       4.92715098      -1.56800168      10.53308371      -0.00378507       0.00327727       0.00214548
Ti       6.01511302       5.12280507      11.45698659       0.00453076      -0.01332009       0.00239331
Ti       5.53293509       1.12066796      11.46095943       0.00911125       0.01042564       0.00751836
Ti       3.26827690       5.49829706      12.26696089       0.00796344       0.01146444      -0.00125670
Ti       2.72951455       1.34482647      12.32148847      -0.00205137      -0.00403062      -0.00720368
Ti       4.78378245       3.21630627      13.24729902      -0.01225507      -0.00148478       0.00777780
Ti       4.43273066      -0.92425895      13.28399839       0.00279576       0.00244693       0.00580626
Ti       2.04724459       3.48345963      14.11418502       0.01052724      -0.00107536      -0.00025097
Al       1.64333007      -0.63597528      14.13797661       0.00124375      -0.00542871      -0.00719124
Ti       7.06354501       3.61241069      14.96926358      -0.00294092      -0.01198386      -0.00996429
Ti       3.64055150       1.24000134      15.00331686      -0.00029495       0.01617975      -0.00257641
Ti       4.23442640       3.96204733      15.93614184      -0.00353043       0.00491975       0.00373820
Ti       0.92175263       1.41007035      15.98870061      -0.00098043      -0.00211490       0.00508794
Ti       5.85200102       1.64603299      16.77030338      -0.00039171      -0.00410189      -0.00303795
Ti       2.61801871      -0.78337139      16.77786415       0.00635544      -0.00094914      -0.00056188
Ti       7.86353006       3.51640585      17.73608601       0.00086056      -0.00636316       0.00191810
Ti       3.10265778       1.90609660      17.69486935       0.00092165       0.00690523      -0.00453486
Ti       5.12964140       3.72879547      18.61836072      -0.00965214      -0.00489327       0.00105328
Ti       4.71109101      -0.32454137      18.63429986       0.00850437       0.00392978       0.01038716
Ti       6.76689422       1.50014534      19.46505718       0.00501128      -0.00061817      -0.00187640
Ti       1.94902681      -0.06353076      19.44596826      -0.00714190      -0.00468725       0.00296171
Ti       7.34558763       4.16860857      20.45514272      -0.00435746       0.00203243      -0.00919602
Ti       3.91589932       1.79221835      20.47272371      -0.00675783       0.00476712      -0.00225470
Ti       4.47725838       4.48810022      21.35060579       0.00618148      -0.00178817      -0.01146065
Ti       1.21036748       1.97931341      21.37397474      -0.00887309      -0.00027041      -0.00377426
Ti       0.02535940       0.01940187      23.03471139      -0.00430968      -0.00408143      -0.00036706
Ti       3.34401429       2.48578354      23.00863637       0.00102875       0.00083091      -0.00356572
Ti       2.78674735      -0.20636715      22.06092084       0.00192020      -0.00021215      -0.00479554
Ti       6.18758763       2.16710565      22.03766636      -0.00659261      -0.00537561      -0.01464351
Ti       3.29290871       2.36375934      45.62026913      -0.00444866      -0.00288820       0.01063230
Ti       3.74837217       6.44024723      45.60452499      -0.00005428       0.00048629       0.00864861
