32
Lattice="5.872 0.0 0.0 0.0 6.890708 0.0 0.0 0.0 27.394398" Properties=species:S:1:pos:R:3:forces:R:3 job_name=Slab-1sol-T1g-Al-SLAB-Al-SLAB-13 top_level=Slab-1sol solute=Al energy=-235.33022542 stress_kbar_3x3="_JSON [[-9.42485744, -0.00020652, 0.00076817], [-0.00020649, -24.13613361, -0.02929403], [0.00076816, -0.02929401, 0.12321021]]" pbc="T T T"
Ti       0.00499530       2.32193899       0.88179544       0.00124551       0.00323783      -0.00309512
Ti       2.93113512       2.32194361       0.88163465      -0.00131624       0.00333825      -0.00218004
Ti       0.01585139       6.09658965       1.23945216       0.00018401      -0.00679149      -0.00676488
Ti       2.92028491       6.09652570       1.23941359      -0.00014774      -0.00647473      -0.00692813
Ti       4.40399691       3.97578257       2.46223320      -0.00016838       0.01069061       0.01673042
Ti       1.46806269       3.97569184       2.46386585       0.00040339       0.00197668       0.01562415
Ti       4.40408058       0.96690412       2.75289830      -0.00035448       0.00724611       0.00972289
Ti       1.46808223       1.02106312       2.80237044       0.00035049       0.00502403       0.00147306
Ti       5.87178871       5.80639302       4.08436241      -0.00400392      -0.00525931       0.00845201
Ti       2.93626636       5.80637005       4.08431868       0.00393682      -0.00521180       0.00864886
Ti       2.92434419       2.81708752       4.55576800       0.00727764       0.00150749       0.00463701
Ti       0.01175263       2.81704718       4.55571675      -0.00737590       0.00160317       0.00483627
Ti       4.40403083       0.66187647       5.71596242      -0.00008127       0.00077802      -0.00093044
Al       1.46804715       0.69217500       5.72222295      -0.00011334      -0.00104742      -0.00337784
Ti       1.46804149       4.75281608       6.25888963       0.00007933      -0.00664849      -0.00113171
Ti       4.40401922       4.64613396       6.27554119      -0.00001449      -0.01182111      -0.00220641
Ti       2.90217186       2.53699076       7.40787515       0.00233177       0.00775821      -0.01007640
Ti       0.03385508       2.53700278       7.40784815      -0.00232057       0.00777454      -0.00996037
Ti       2.92062804       6.58918113       7.96913541       0.00289496      -0.00018270      -0.00403410
Ti       0.01540612       6.58919753       7.96913710      -0.00289601      -0.00009092      -0.00392509
Ti       4.40403570       4.45236642       9.11329047      -0.00002975       0.00185470       0.00069403
Ti       1.46800087       4.46714246       9.08105790      -0.00002127      -0.00517220       0.00149226
Ti       4.40402312       1.50909541       9.61840351      -0.00000424       0.00061677       0.00002359
Ti       1.46797071       1.52667132       9.66904361      -0.00004002       0.00644856      -0.00035878
Ti       2.93863817       6.30931683      10.88943387       0.00053714      -0.00390119      -0.00514797
Ti       5.86936951       6.30930775      10.88941767      -0.00048476      -0.00384743      -0.00508942
Ti       0.01282400       3.37683527      11.27468948       0.00069905      -0.00714306      -0.00591015
Ti       2.92319216       3.37682135      11.27466642      -0.00066882      -0.00713034      -0.00555134
Ti       1.46797043       1.22902781      12.46989485       0.00003858       0.00382209       0.00568414
Ti       4.40403500       1.22038015      12.43364618       0.00006861       0.00275880       0.00477383
Ti       4.40404470       5.04071219      12.84429037      -0.00013513       0.00243151      -0.00586929
Ti       1.46797671       5.03506203      12.85931996       0.00012904       0.00185481      -0.00025504
