32
Lattice="5.872 0.0 0.0 0.0 6.890708 0.0 0.0 0.0 27.394398" Properties=species:S:1:pos:R:3:forces:R:3 job_name=Slab-1sol-T1g-Al-SLAB-Al-SLAB-12 top_level=Slab-1sol solute=Al energy=-235.32738354 stress_kbar_3x3="_JSON [[-11.00152175, 7.671e-05, 0.00104314], [7.673e-05, -25.15322092, 0.19212562], [0.00104314, 0.19212563, -1.65057979]]" pbc="T T T"
Ti       5.86343381       2.32156746       0.86638784      -0.00137942       0.00184266      -0.00172343
Ti       2.94471182       2.32155080       0.86637710       0.00146548       0.00198061      -0.00138907
Ti       5.85758762       6.10585107       1.22926331       0.00019833      -0.00599035       0.00012429
Ti       2.95061205       6.10586413       1.22926399      -0.00021477      -0.00602173       0.00027987
Ti       4.40409335       3.97629293       2.45379555      -0.00025367      -0.00747957       0.01030334
Ti       1.46806335       3.97601684       2.44404510       0.00013066       0.00145739       0.01854056
Ti       4.40409644       1.02032172       2.79513289      -0.00031258       0.00810584       0.01015128
Ti       1.46807573       0.97699302       2.74323303       0.00001472       0.00607878       0.01263284
Ti       0.00327656       5.80227096       4.07408570       0.00438939      -0.00305362       0.00574284
Ti       2.93279251       5.80227362       4.07409935      -0.00427591      -0.00315309       0.00561141
Ti       2.94531323       2.81990266       4.54951311       0.00103546       0.00294982      -0.00750113
Ti       5.86279278       2.81992221       4.54949524      -0.00085701       0.00272216      -0.00689286
Al       4.40401839       0.68921730       5.71445953       0.00018326       0.00125229      -0.00008203
Ti       1.46803940       0.65879083       5.70895598      -0.00028473      -0.00509958      -0.01564682
Ti       1.46802373       4.64210171       6.27415757      -0.00006843      -0.00409671       0.00073193
Ti       4.40403548       4.75003078       6.25818669      -0.00002098       0.00127297      -0.00328551
Ti       2.96962298       2.53127781       7.40657562      -0.00270013       0.00666976       0.00965401
Ti       5.83837458       2.53128201       7.40658452       0.00279824       0.00645660       0.00955526
Ti       2.95316935       6.59463055       7.97359691       0.00050324      -0.00196238       0.01716279
Ti       5.85483133       6.59462368       7.97360579      -0.00042819      -0.00171030       0.01701116
Ti       4.40399131       4.46314541       9.08035336      -0.00009521       0.00665909      -0.01136245
Ti       1.46797142       4.45064654       9.10984478       0.00011752       0.00087215      -0.00006682
Ti       4.40400463       1.52747434       9.68279528       0.00006570      -0.00765544      -0.01426100
Ti       1.46799935       1.50906784       9.63469005      -0.00006314      -0.00608062      -0.01575593
Ti       2.93334359       6.30135089      10.90242219      -0.00400059       0.00427739      -0.01861789
Ti       0.00267055       6.30130959      10.90243606       0.00400446       0.00447394      -0.01877843
Ti       5.86065526       3.38304423      11.28700646       0.00248323      -0.00971917      -0.01302186
Ti       2.94732593       3.38302581      11.28700845      -0.00248131      -0.00942882      -0.01302257
Ti       1.46800966       1.21675014      12.44505336      -0.00006078       0.00278864       0.00285549
Ti       4.40399172       1.22476475      12.47890352       0.00008444       0.00036414       0.00480874
Ti       4.40399971       5.03715993      12.87952604      -0.00015131       0.00607160       0.01028382
Ti       1.46799427       5.04292853      12.86674139       0.00017401       0.00515556       0.00595818
