28
Lattice="5.088765 0.0 0.0 0.0 5.495746 0.0 0.0 0.0 32.722931" Properties=species:S:1:pos:R:3:forces:R:3 job_name=Slab-1sol-C1-V-SLAB-V-SLAB-11 top_level=Slab-1sol solute=V energy=-211.00222452 stress_kbar_3x3="_JSON [[-16.16783014, -0.37180833, 0.0692115], [-0.37180834, -13.58869906, -0.75742022], [0.06921152, -0.75742019, -0.0587461]]" pbc="T T T"
Ti       5.04648074       5.41916012       0.43198974      -0.00644681       0.00587099       0.00532509
Ti       3.51305250       1.95783061       1.47537415       0.00282376       0.00144232       0.00452083
Ti       2.38736007       4.70215452       1.48002424       0.00152435       0.00853790       0.00605186
Ti       5.08268083       4.01154989       2.69188812      -0.00519082       0.00567780       0.00426043
Ti       0.84741313       1.28098326       2.66892501       0.00196429       0.00182376       0.00377421
Ti       3.31616566       0.39604368       3.88562881       0.00163320       0.00639779      -0.01427471
Ti       2.61243562       3.12573017       3.92527846       0.00212992      -0.00023700      -0.01136730
Ti       0.91246718       5.03156535       5.19832011      -0.00248249       0.00520716       0.00044265
Ti       5.04576953       2.23540318       5.20456332       0.00136835      -0.00591081      -0.00269980
Ti       2.51262122       1.67028045       6.35638109       0.00461310       0.00669659       0.01132700
Ti       3.48563112       4.43858714       6.30291380       0.00081058       0.01105376       0.01277603
V        0.13479450       0.78303253       7.53925207       0.01223910      -0.00106590       0.00913648
Ti       0.75458353       3.53397216       7.57026918      -0.00916957      -0.00220848       0.01425293
Ti       3.45472272       2.64684512       8.79830441       0.00079356      -0.01617679       0.01129276
Ti       2.58433836       5.41779079       8.74988123      -0.00366322      -0.00616480       0.01066264
Ti       0.89482068       1.95329198       9.94274787       0.00406520      -0.00717785      -0.00090214
Ti       5.04926242       4.74370998       9.98672170      -0.00366705       0.00336379      -0.00589906
Ti       2.53810039       3.94572944      11.17350887       0.00628094      -0.00569159      -0.01095135
Ti       3.36083157       1.18510582      11.22353412      -0.00405991      -0.00603112      -0.01252944
Ti       0.81300733       0.38202163      12.47013740       0.00471896       0.00421423      -0.01465722
Ti       0.04612804       3.13616160      12.43108726      -0.00729574      -0.00545049      -0.01263491
Ti       2.52455610       2.29335747      13.69889255       0.00324535      -0.00116626       0.00299422
Ti       3.39077200       5.02161966      13.69609168       0.00456246      -0.00093535       0.00418357
Ti       0.95777010       4.33140420      14.89878143       0.00183995      -0.00410532       0.00773870
Ti       4.93683446       1.58968816      14.88209641      -0.01245091       0.00658878       0.00398394
Ti       3.38786647       3.61652645      15.97600251       0.00119828      -0.00619920      -0.01517437
Ti       2.50814417       0.87147571      15.95495071       0.00141000       0.00428028      -0.01509991
Ti       0.84277513       2.68040835       0.40430004      -0.00279482      -0.00263421       0.00346689
