36
Lattice="5.871999 0.0 0.0 0.0 6.890708 0.0 0.0 0.0 27.401158" Properties=species:S:1:pos:R:3:forces:R:3 job_name=Slab-1sol-T1m-Al-SLAB-Al-SLAB-14 top_level=Slab-1sol solute=Al energy=-266.3685559 stress_kbar_3x3="_JSON [[-10.02318764, -9.795e-05, 0.00020481], [-9.795e-05, -25.11435691, 0.2562587], [0.00020481, 0.25625869, -0.04980966]]" pbc="T T T"
Ti       2.93595716       6.06991755       0.37974863       0.00007000      -0.00367353       0.01246117
Ti       4.37415833       3.94636376       1.58003571      -0.00957245      -0.00273208       0.00676870
Ti       1.49783960       3.94661867       1.57970798       0.00948285      -0.00338387       0.00701602
Ti       4.38642103       0.97459835       1.95005465      -0.00715978      -0.00034433      -0.00004535
Ti       1.48567243       0.97466288       1.95021984       0.00703398       0.00020724      -0.00022833
Ti       2.93599316       5.76642945       3.24475056       0.00005942      -0.00026619      -0.01163107
Ti       0.00006504       5.79681759       3.23832585      -0.00006330       0.00089583      -0.00003303
Ti       2.93586281       2.83692383       3.74840084      -0.00024946       0.00107733      -0.01434742
Ti       0.00003325       2.82032599       3.66549559       0.00047067      -0.00162892      -0.00711946
Ti       4.40688155       0.68870715       4.89821460      -0.00019368      -0.00158268       0.00858043
Ti       1.46516096       0.68869924       4.89826518       0.00023781      -0.00135129       0.00840677
Ti       4.38129741       4.68802579       5.41902591       0.00316610       0.00091038       0.01094222
Ti       1.49069890       4.68806263       5.41930338      -0.00308747       0.00093693       0.01025616
Ti       0.00005327       2.51051271       6.53262006      -0.00026765      -0.00262622       0.00440254
Al       2.93609193       2.51802471       6.57023886      -0.00049611      -0.00395941       0.00681046
Ti      -0.00004926       6.48908049       7.11908163       0.00010189      -0.00204598      -0.00871952
Ti       2.93599839       6.59103747       7.13978176      -0.00005775       0.00195866      -0.00626950
Ti       1.49914417       4.36481003       8.25907862       0.00356664       0.00114930      -0.01418210
Ti       4.37288741       4.36486743       8.25893025      -0.00337759       0.00126552      -0.01385185
Ti       1.48292115       1.54654799       8.81826001      -0.00027593       0.00074981      -0.00852626
Ti       4.38904309       1.54656935       8.81828378       0.00056831       0.00099979      -0.00821426
Ti       2.93601011       6.30922011       9.94119215       0.00025351      -0.00000214       0.01032028
Ti       0.00001369       6.29339157       9.94486814      -0.00026795       0.00591497       0.00698804
Ti       2.93611847       3.35115087      10.52249094       0.00038915       0.00391556       0.00814483
Ti       0.00000477       3.34598981      10.47777333      -0.00041185      -0.00385596       0.00457225
Ti       4.41284645       1.24613460      11.75133743      -0.00037629      -0.00497834       0.00071027
Ti       1.45924905       1.24626471      11.75163208       0.00024759      -0.00515279      -0.00018428
Ti       4.40179289       5.21049783      12.12727995      -0.00502919       0.00889564       0.00139220
Ti       1.47026628       5.21052183      12.12723111       0.00477122       0.00853519       0.00132123
Ti       2.93604145       6.86390966      13.71046917       0.00061973      -0.00731046      -0.01586577
Ti       2.93612884       3.05833448      13.31984738       0.00013553       0.00562244      -0.00804816
Ti      -0.00000270       6.87104764      13.71127809      -0.00039082      -0.00516006      -0.01283794
Ti      -0.00008889       3.05863491      13.29523638      -0.00007802       0.00427851      -0.00545365
Ti       2.93588918       2.27417326      -0.00283145      -0.00033166       0.00329417       0.01432778
Ti       0.00009709       2.27784173       0.03686075       0.00053550       0.00230030       0.00762930
Ti       0.00008748       6.09085396       0.40568597      -0.00002297      -0.00285331       0.00450729
