34
Lattice="5.088765 0.0 0.0 0.0 9.739025 0.0 0.0 0.0 22.303587" Properties=species:S:1:pos:R:3:forces:R:3 job_name=Slab-1sol-T2-V-SLAB-V-SLAB-15 top_level=Slab-1sol solute=V energy=-252.40232618 stress_kbar_3x3="_JSON [[-26.66981086, 0.06471756, -0.16066613], [0.06471756, -19.67443626, 0.11937182], [-0.16066614, 0.11937182, -0.31398169]]" pbc="T T T"
Ti       4.80727601       0.71730198       0.64849009       0.00157637      -0.00991176       0.00078164
Ti       2.24952049       5.59720801       0.61328325       0.00783244      -0.00603892      -0.01025243
Ti       4.17828922       3.62068105       1.18873763       0.00579449      -0.00102607      -0.00000132
Ti       1.63690408       8.49930785       1.21261974       0.00195755       0.00485153      -0.00565918
Ti       2.41623660       1.33343081       1.77683467      -0.00005624       0.00125800      -0.00209537
Ti       4.94332789       6.21495168       1.75935651      -0.00531165       0.00321482      -0.00331965
Ti       1.41236770       3.92804123       2.51285328      -0.00249688      -0.00647943       0.00963149
Ti       3.96555324       8.80590043       2.57235028       0.00353384       0.00579517       0.00615302
Ti       4.82628471       1.72739254       3.15264103       0.00497732       0.00556520       0.00102190
Ti       2.26081044       6.59921699       3.10630769       0.00256839      -0.00312434       0.00772321
Ti       1.51619115       9.30537709       3.83121375      -0.00077183       0.00506342       0.00100938
Ti       4.04641043       4.43628918       3.79406049      -0.00198268      -0.00067989      -0.00072669
Ti       4.85627373       7.12610852       4.58122517      -0.00237644      -0.00026016       0.01435372
Ti       2.37101008       2.21077273       4.56772331       0.00225344       0.00438374       0.01244163
Ti       1.47426413       4.87951375       5.24932840       0.00398059      -0.00382287       0.01667030
V        4.03607748       0.01576668       5.26107779       0.00013064       0.00243874       0.00525509
Ti       2.38790879       7.53470776       5.90764737      -0.00352026      -0.00153282       0.00417742
Ti       4.88656329       2.61880484       5.89059730      -0.00690122       0.00332223       0.00420241
Ti       4.02391709       5.28695239       6.59250261       0.00499225      -0.00485926      -0.00748348
Ti       1.48787831       0.39764404       6.56684721       0.00052320       0.00216810      -0.00762109
Ti       4.83400083       7.97906888       7.25761662      -0.00095586      -0.00868317      -0.00480071
Ti       2.29078349       3.07902899       7.30030420      -0.00034017      -0.00205258      -0.00815540
Ti       1.49845233       5.76914940       8.04596493      -0.00422794      -0.00645723      -0.00313991
Ti       4.03105526       0.88018575       7.99393754      -0.00183044       0.00101835       0.00080505
Ti       2.26365667       8.45413632       8.75348379      -0.00023251      -0.00069095      -0.00495313
Ti       4.82722571       3.57534832       8.72682073      -0.00005279      -0.00075794      -0.00760881
Ti       1.40501360       1.36309099       9.31820120      -0.00281579       0.00258907      -0.01066130
Ti       3.96616635       6.24660968       9.32644280      -0.00004662      -0.00242406      -0.01250045
Ti       4.93036933       8.84137714      10.07180075      -0.00409435       0.00113502       0.00152363
Ti       2.40273005       3.96774839      10.07116668      -0.00664382      -0.00056099      -0.00250873
Ti       4.16207042       1.67535692      10.63832553       0.00238782       0.00063613      -0.00359297
Ti       1.63643409       6.54951561      10.66646048       0.00179084      -0.00093193       0.00160332
Ti       2.23465195       9.46029205      11.24262614      -0.00050973       0.00868801       0.00438094
Ti       4.79490456       4.57617773      11.22865915       0.00086803       0.00816685       0.00334649
