34
Lattice="5.088765 0.0 0.0 0.0 9.739025 0.0 0.0 0.0 22.303587" Properties=species:S:1:pos:R:3:forces:R:3 job_name=Slab-1sol-T2-Al-SLAB-Al-SLAB-14 top_level=Slab-1sol solute=Al energy=-248.52644638 stress_kbar_3x3="_JSON [[-25.46557191, 0.07502678, -0.00145354], [0.07502679, -17.90422414, 0.03813578], [-0.00145356, 0.03813577, -0.25575766]]" pbc="T T T"
Ti       4.79832147       0.71554984       0.61911833      -0.00849422      -0.00057722      -0.01404730
Ti       2.21999925       5.56111879       0.59819237       0.00157464      -0.00182166       0.01486745
Ti       4.13976933       3.62066332       1.21298714      -0.00513671       0.01758382       0.00268616
Ti       1.65164444       8.48682106       1.17368938       0.00253277      -0.01268937       0.00239314
Ti       2.40339382       1.32559981       1.75668539       0.00395718       0.00003659       0.00473530
Ti       4.92022701       6.21313678       1.68424132       0.00127949      -0.00095066       0.00664249
Ti       1.38552237       3.94090247       2.53052653       0.00025802       0.00504024      -0.00014327
Ti       3.98467921       8.77845245       2.52332222      -0.00236741      -0.00755241       0.01503946
Ti       4.80478581       1.73496005       3.11243318      -0.00194952       0.00307667       0.01132552
Ti       2.22952511       6.59922864       3.08654480       0.00802683      -0.00384682      -0.01079692
Ti       1.52716179       9.29945156       3.80517711      -0.00146167       0.00047309      -0.00421848
Ti       4.06711385       4.47685317       3.84033763      -0.00444143       0.00402324      -0.00226898
Ti       4.93704645       7.11953834       4.59181309       0.00188040      -0.00311900      -0.00528848
Ti       2.33545660       2.25570116       4.56870991       0.01049138      -0.00232711      -0.00327934
Al       1.51187033       4.87861302       5.25369354       0.00134953      -0.00135895       0.00591614
Ti       4.02739593       0.03086108       5.25064462      -0.00570826       0.00440531      -0.00303334
Ti       2.38375370       7.50614097       5.87742531       0.00223057      -0.00122602      -0.00060596
Ti       4.93984622       2.66665321       5.92331744      -0.00332856      -0.00301387      -0.00652180
Ti       4.05907492       5.29161071       6.59436292       0.00161849       0.00026802      -0.00351876
Ti       1.49462380       0.43387555       6.58192536      -0.00544345       0.00226978      -0.00040592
Ti       4.82628526       7.98748190       7.31067965       0.00408059       0.00303375       0.00234403
Ti       2.32163192       3.08654029       7.29174648       0.00684924       0.00036880       0.00360872
Ti       1.46808938       5.76872419       7.99314962       0.00044090      -0.00034743       0.00388749
Ti       4.05101282       0.89856505       8.05374924       0.00404674      -0.00520771       0.00474833
Ti       2.27653540       8.44605724       8.73232632       0.00154357       0.00045275      -0.00096521
Ti       4.81026047       3.56318870       8.78975763       0.00010239      -0.00012840      -0.00470538
Ti       1.42322346       1.36224092       9.33918893      -0.00182268       0.00260849      -0.00794098
Ti       3.93893902       6.22122640       9.31876168      -0.00838855       0.00656979      -0.01074954
Ti       4.94518228       8.81713914      10.09360132      -0.00165460       0.00151304      -0.00227102
Ti       2.36577796       3.96947903      10.08138026      -0.00480876      -0.00338270      -0.00373065
Ti       4.17611106       1.65684304      10.68454140      -0.00142112      -0.01206395      -0.00081428
Ti       1.62062133       6.53777273      10.64947966       0.00023286      -0.00429735      -0.00071507
Ti       2.25642049       9.42384851      11.24065815       0.00049528       0.00455181       0.00193208
Ti       4.75927722       4.59761657      11.26334017       0.00343606       0.00763545       0.00589437
