36
Lattice="5.871999 0.0 0.0 0.0 6.890708 0.0 0.0 0.0 27.401158" Properties=species:S:1:pos:R:3:forces:R:3 job_name=Slab-1sol-T1m-V-SLAB-V-SLAB-14 top_level=Slab-1sol solute=V energy=-270.17948164 stress_kbar_3x3="_JSON [[-10.60508741, 5.003e-05, -0.00023771], [5e-05, -27.93032526, -0.26963164], [-0.00023772, -0.26963165, -2.29011988]]" pbc="T T T"
Ti       2.93598602       6.06227422       0.38529517      -0.00014957      -0.00285373       0.00416049
Ti       4.37611844       3.93694290       1.60595618       0.00286547      -0.00680592      -0.00828909
Ti       1.49587424       3.93689060       1.60591510      -0.00283272      -0.00682466      -0.00852373
Ti       4.39344242       0.98252621       1.95708381      -0.00090179       0.00508030      -0.00618061
Ti       1.47853003       0.98256773       1.95703325       0.00080392       0.00511905      -0.00590409
Ti       2.93602158       5.79136976       3.22892148       0.00005547       0.00065945      -0.00465108
Ti      -0.00000206       5.80278117       3.25386835      -0.00006920       0.00037401      -0.00753180
Ti       2.93600650       2.84061740       3.79042222      -0.00008276      -0.00094397      -0.00446931
Ti       5.87199532       2.81200734       3.71705885       0.00019885      -0.00037165      -0.00828725
Ti       4.40098159       0.70789276       4.91786864      -0.00320628      -0.00164585      -0.00721307
Ti       1.47103944       0.70785397       4.91785893       0.00326188      -0.00112797      -0.00717021
Ti       4.37283888       4.69118060       5.42815967      -0.00280657      -0.00183601      -0.00507092
Ti       1.49918280       4.69119937       5.42819420       0.00287335      -0.00160636      -0.00583294
Ti       0.00006636       2.54835115       6.54897377      -0.00043773      -0.00472466       0.00279578
V        2.93598560       2.56662678       6.59397143       0.00059883      -0.00711552      -0.00177255
Ti       0.00003622       6.51417838       7.11909773      -0.00056411       0.00706739       0.00097077
Ti       2.93597944       6.58751855       7.14312250       0.00039350       0.00990748       0.00134018
Ti       1.48769021       4.36495919       8.24888486       0.00192741      -0.01041599       0.00817626
Ti       4.38435477       4.36496788       8.24889676      -0.00192389      -0.01027815       0.00748344
Ti       1.48688894       1.54808471       8.77298789       0.00320605       0.00866059       0.00878659
Ti       4.38513892       1.54812736       8.77306327      -0.00322925       0.00952233       0.00928453
Ti       2.93605292       6.27849202       9.95055446       0.00008751       0.00328319       0.00361551
Ti       0.00001355       6.28769972       9.93433131       0.00001257       0.00443476       0.00090689
Ti       2.93603587       3.33107607      10.48160305       0.00033126      -0.00707350       0.00215978
Ti       0.00001629       3.33670902      10.46482460      -0.00044446      -0.00628801       0.00123288
Ti       4.40636553       1.23691967      11.74172028      -0.00011835       0.00311372       0.00544808
Ti       1.46572890       1.23688880      11.74177859      -0.00005641       0.00258055       0.00507695
Ti       4.42068851       5.19706918      12.10088654      -0.00075130       0.00239941       0.00641801
Ti       1.45136696       5.19707724      12.10091050       0.00077219       0.00219883       0.00672590
Ti       2.93603972       6.85179423      13.68618689      -0.00025886       0.00454487       0.00103263
Ti       2.93607204       3.04441428      13.28924786      -0.00002071      -0.00552631      -0.00450820
Ti       0.00003137       6.85442211      13.70098385       0.00026002       0.00430415      -0.00091578
Ti       0.00002432       3.04890797      13.29596318       0.00012056      -0.00686118      -0.00228154
Ti       2.93598338       2.28076890       0.00214859      -0.00035027       0.00655935       0.00480016
Ti       0.00000811       2.28010991       0.04562207       0.00035797       0.00625781       0.00514309
Ti       0.00000182       6.07430290       0.42877926       0.00007740      -0.00376779       0.00304423
