28
Lattice="5.088765 0.0 0.0 0.0 5.495746 0.0 0.0 0.0 32.722931" Properties=species:S:1:pos:R:3:forces:R:3 job_name=Slab-1sol-C1-Al-SLAB-Al-SLAB-11 top_level=Slab-1sol solute=Al energy=-207.15730097 stress_kbar_3x3="_JSON [[-16.3356845, 0.10149493, -0.42041178], [0.10149493, -13.56973977, 0.41257515], [-0.42041178, 0.41257515, -0.76792305]]" pbc="T T T"
Ti       5.03912200       5.40839862       0.38097020      -0.00030341      -0.00516582       0.00686410
Ti       3.51442502       1.95466239       1.42590254      -0.00561227       0.00399519       0.01039296
Ti       2.38679868       4.69153964       1.42762323       0.00213422      -0.00066504       0.00869779
Ti       5.07065088       4.00138058       2.66379072      -0.00103564      -0.00203619       0.01195461
Ti       0.83012659       1.24366169       2.62886421       0.00630869      -0.00026196       0.01103369
Ti       3.31666771       0.37810812       3.85346388       0.00192938      -0.00083228      -0.00558338
Ti       2.56866562       3.11628483       3.86965124       0.00378919      -0.00384145      -0.00490590
Ti       0.92931562       5.05713749       5.17276922       0.00844180      -0.00246153       0.00327874
Ti       5.06864036       2.31404420       5.14207036      -0.00005130      -0.00472546       0.00213880
Ti       2.59112737       1.64099901       6.37242987       0.00184783      -0.00243470       0.00892537
Ti       3.49115175       4.39517068       6.24628172       0.00531340       0.00695768       0.00768185
Al       0.07256044       0.77722144       7.56474165       0.00132087       0.00064282       0.00506318
Ti       0.75405985       3.52649320       7.56914434       0.00019923      -0.00311292       0.01608809
Ti       3.48486269       2.65720993       8.87034701       0.01224475      -0.00383303      -0.01131734
Ti       2.60799851       5.42414862       8.74650014       0.00208194       0.00002835      -0.01103230
Ti       0.92381693       1.96399873       9.98652424      -0.00083388      -0.00319283      -0.00969718
Ti       5.06523222       4.72163853      10.00741708      -0.00286044      -0.00180285      -0.01040861
Ti       2.51902386       3.95425103      11.22208220      -0.00208701       0.00069947      -0.00668838
Ti       3.36093641       1.19386523      11.25804045       0.00045870       0.00180121      -0.00472003
Ti       0.79763419       0.39997163      12.50602105      -0.00053201      -0.00408795       0.00114313
Ti       0.03168187       3.14625086      12.44103310      -0.00566457       0.00278531      -0.00224468
Ti       2.52007107       2.30376724      13.72202102      -0.00085760       0.01464651      -0.00796091
Ti       3.39039208       5.03429673      13.73348527       0.00234654      -0.00757488      -0.00094141
Ti       0.94984832       4.34117107      14.92003355      -0.00856666      -0.00182823      -0.00506761
Ti       4.93066190       1.60136289      14.91800346      -0.01215936       0.00873697      -0.00327748
Ti       3.38014856       3.61725010      16.01055043      -0.00741893       0.00670242      -0.00984632
Ti       2.49419726       0.87643270      15.98158374      -0.00221316       0.00185382      -0.00400834
Ti       0.85156778       2.66071223       0.37650038       0.00177971      -0.00099267       0.00443754
