34
Lattice="5.088765 0.0 0.0 0.0 9.739025 0.0 0.0 0.0 22.303587" Properties=species:S:1:pos:R:3:forces:R:3 job_name=Slab-1sol-T2-V-SLAB-V-SLAB-14 top_level=Slab-1sol solute=V energy=-252.4025942 stress_kbar_3x3="_JSON [[-26.61069941, 0.08247044, -0.1721473], [0.08247045, -19.57121148, 0.04855884], [-0.1721473, 0.04855882, -0.25456479]]" pbc="T T T"
Ti       4.79541879       0.72458306       0.61113915      -0.00143767      -0.00238431       0.01431362
Ti       2.26234454       5.58316854       0.64811408       0.00658519      -0.00793276       0.00249167
Ti       4.18184346       3.63154525       1.21281240       0.00315702      -0.00234675      -0.00351673
Ti       1.63524166       8.49024137       1.18904538       0.00583723       0.00572983      -0.00213266
Ti       2.39762375       1.34563208       1.75726191       0.00406967       0.00618407       0.00429943
Ti       4.95911724       6.20257470       1.77415424       0.00584707       0.00946516       0.01008469
Ti       1.42153835       3.93665460       2.57550369      -0.00054428       0.00259599      -0.00694929
Ti       3.95622192       8.79556366       2.51643406      -0.00165809       0.00985685      -0.00714621
Ti       4.80403032       1.73155812       3.10677410       0.00235603      -0.01317817      -0.00108647
Ti       2.28104432       6.59949783       3.15227317       0.00374112      -0.00915814       0.00251259
Ti       1.50140259       9.30870068       3.79218569       0.00211927      -0.00972794       0.00088322
Ti       4.06205795       4.43806726       3.83058506      -0.00738230      -0.00484349      -0.00417779
Ti       4.91602946       7.08024864       4.56860127       0.00071010       0.01217630       0.00476496
Ti       2.31245761       2.25710775       4.58169539      -0.00110065      -0.00010729       0.00837116
V        1.49191170       4.88617058       5.26317755       0.00233729      -0.00279950      -0.00172863
Ti       4.01929458       0.01020402       5.25044686       0.00409302      -0.00350956       0.00676086
Ti       2.34256405       7.48975457       5.89091612      -0.01087957       0.00151980      -0.00382828
Ti       4.93192357       2.66520021       5.90798157      -0.00706282      -0.00620500       0.00376729
Ti       4.03124658       5.26718052       6.56624013       0.00362086      -0.00324085      -0.00344865
Ti       1.48041739       0.41615930       6.59184330       0.00041208       0.00141501      -0.01314204
Ti       4.83628527       7.94817430       7.29954584      -0.00235767      -0.00095113      -0.00806528
Ti       2.29035737       3.10731995       7.25864282      -0.00217671      -0.00512400      -0.00681554
Ti       1.48594397       5.74761338       7.99539091      -0.00291600       0.00740157      -0.00109148
Ti       4.04204465       0.89621388       8.04668062       0.00014827       0.00471974      -0.00353211
Ti       2.28198320       8.44240606       8.72532334       0.00085676       0.01363109       0.00506726
Ti       4.80751259       3.58124861       8.75349206      -0.00372420       0.01701743       0.00075569
Ti       1.42064977       1.37700376       9.32250733       0.00287672      -0.00264191       0.01046404
Ti       3.94901727       6.23297148       9.31473448      -0.00431958      -0.00330911       0.00814028
Ti       4.94637513       8.83732850      10.07174259      -0.00140911      -0.00319856       0.00087933
Ti       2.38530795       3.97232467      10.07345817       0.00132610      -0.00417511      -0.00050407
Ti       4.18185565       1.67942797      10.66655788      -0.00126312      -0.00234337       0.00205677
Ti       1.61867075       6.54522279      10.63794008       0.00121622      -0.00611614       0.00183918
Ti       2.25129736       9.44975862      11.23064890      -0.00195462       0.00206205      -0.01477572
Ti       4.77954875       4.59562900      11.24365800      -0.00112363      -0.00048178      -0.00551106
