28
Lattice="5.088765 0.0 0.0 0.0 5.495746 0.0 0.0 0.0 32.722931" Properties=species:S:1:pos:R:3:forces:R:3 job_name=Slab-1sol-C1-Al-SLAB-Al-SLAB-10 top_level=Slab-1sol solute=Al energy=-207.10904828 stress_kbar_3x3="_JSON [[-17.1809629, 0.06066411, 0.06240185], [0.06066414, -12.24891926, 0.79236481], [0.06240185, 0.79236481, 0.02450899]]" pbc="T T T"
Ti       0.02150470       5.41102517       0.35836344       0.00291770      -0.00182815       0.00825624
Ti       3.54386802       1.92482435       1.48295100       0.00246943       0.00075641       0.00127555
Ti       2.45444802       4.67672514       1.43135568      -0.00357702      -0.00338596       0.00116127
Ti       0.00323126       4.00160907       2.61482577      -0.00375995      -0.00240407      -0.01402619
Ti       0.89016321       1.21461491       2.66008061       0.00308878       0.00344829      -0.01943912
Ti       3.37436097       0.39513554       3.92454042       0.00208696      -0.00667279      -0.00326890
Ti       2.55099030       3.14605115       3.88057280      -0.00094347      -0.00436789      -0.00093015
Ti       0.80210226       5.11394068       5.14699635      -0.00136019       0.00014272      -0.00313523
Ti       5.00912882       2.39075052       5.10000706      -0.00326748       0.00333119      -0.00688378
Ti       2.53247098       1.58323118       6.33189255       0.00147948       0.00295132      -0.01464728
Al       3.32663107       4.32679670       6.33002250       0.01075776      -0.00294696      -0.00076466
Ti       5.00674311       0.75254225       7.60229229      -0.00744967       0.00001693      -0.01016856
Ti       0.78956531       3.53052821       7.55050406      -0.00109477       0.00094765      -0.00808404
Ti       3.37486061       2.75279638       8.75003703      -0.00140027       0.00398792       0.00077259
Ti       2.51827721      -0.00621657       8.77139605      -0.00185943      -0.00244040      -0.00502575
Ti       0.86333175       1.95198676      10.01753581      -0.00155180      -0.00274769       0.01847453
Ti       0.01447654       4.67938000      10.05451622      -0.00201230      -0.00138673       0.01686053
Ti       2.54766772       3.93664511      11.23612555      -0.00185759      -0.00216655       0.00512163
Ti       3.41056541       1.19846451      11.18906792       0.00045547       0.00092944       0.00744787
Ti       0.82577471       0.41144504      12.47318984      -0.00066942       0.00330445      -0.00174038
Ti       0.04721023       3.14581463      12.49320329      -0.00117917      -0.00007029      -0.00066199
Ti       2.56331944       2.28414161      13.70913664      -0.00132433       0.00154273       0.01214138
Ti       3.42335723       5.04915133      13.70598790      -0.00181948       0.00378941       0.01298364
Ti       1.01169722       4.32393866      14.91491971       0.00113823       0.00146471      -0.00354866
Ti       4.97512497       1.57422533      14.93670581       0.00497430       0.00209508      -0.00427417
Ti       3.44259043       3.62185482      15.97378728       0.00630880      -0.00035515       0.00030751
Ti       2.53864542       0.86941965      15.98310215      -0.00014585       0.00159099       0.00264051
Ti       0.90174866       2.64486125       0.39473055      -0.00040474       0.00047343       0.00915563
