32
Lattice="5.872 0.0 0.0 0.0 6.890708 0.0 0.0 0.0 27.394398" Properties=species:S:1:pos:R:3:forces:R:3 job_name=Slab-1sol-T1g-Al-SLAB-Al-SLAB-14 top_level=Slab-1sol solute=Al energy=-235.34981115 stress_kbar_3x3="_JSON [[-10.05204639, -0.00043331, 0.0002505], [-0.00043331, -25.2963646, -0.14143507], [0.00025052, -0.14143505, -0.19759803]]" pbc="T T T"
Ti       5.87049748       2.26905792       0.83908498      -0.00018815      -0.00247485       0.00316238
Ti       2.93764151       2.26911552       0.83909776       0.00012424      -0.00245907       0.00302255
Ti       5.85716181       6.09663964       1.24480864       0.00078709       0.00285050       0.01031461
Ti       2.95106691       6.09665457       1.24479055      -0.00076914       0.00254800       0.01020040
Ti       4.40403073       3.95102517       2.42087559       0.00038077      -0.00098200       0.00377017
Ti       1.46810026       3.91716445       2.40132206      -0.00026296      -0.00065361      -0.00546254
Ti       4.40408468       1.01276174       2.80434289       0.00016300      -0.00256409       0.00529967
Ti       1.46812711       0.96969198       2.81678002      -0.00006897      -0.00527468      -0.00175415
Ti       5.86648765       5.79643803       4.08201112      -0.00356034      -0.00942668       0.00116153
Ti       2.94153738       5.79642834       4.08203554       0.00351571      -0.00921833       0.00096014
Ti       2.90706426       2.88476915       4.59746994       0.00073184       0.00296842       0.00317238
Ti       0.02902338       2.88475056       4.59744111      -0.00071959       0.00307792       0.00330354
Ti       4.40399010       0.77028699       5.71438826       0.00005784       0.00673110      -0.00408311
Ti       1.46801269       0.66311865       5.71231179      -0.00013298      -0.01086757      -0.00121439
Al       1.46802710       4.74451042       6.26714788      -0.00027762       0.01008882      -0.00010791
Ti       4.40398469       4.77161451       6.32757793       0.00017121       0.01244052      -0.00093309
Ti       2.90981132       2.59752252       7.42876244      -0.00617802       0.00242415       0.00987398
Ti       0.02618935       2.59751237       7.42873669       0.00623706       0.00256381       0.00968908
Ti       2.94190995       6.58289912       7.95451905      -0.00180823      -0.00175637       0.00435680
Ti       5.86607916       6.58289975       7.95451998       0.00180684      -0.00176850       0.00430597
Ti       4.40402833       4.44943020       9.19174128       0.00005226      -0.00344279       0.00981210
Ti       1.46798838       4.43188110       9.09868438      -0.00000719      -0.00312173       0.00083490
Ti       4.40401471       1.48797700       9.60792905      -0.00000387      -0.00629614       0.01277694
Ti       1.46797047       1.52201476       9.59669612      -0.00005623       0.00120653       0.00209937
Ti       2.91700705       6.31452356      10.89079360       0.00339336       0.00713244      -0.01542888
Ti       0.01901190       6.31445299      10.89084359      -0.00344176       0.00703142      -0.01500161
Ti       0.03779589       3.33778593      11.27256990       0.00247036      -0.00246523      -0.01118334
Ti       2.89821066       3.33774323      11.27258341      -0.00242349      -0.00257216      -0.01118492
Ti       1.46800919       1.21206808      12.47259462       0.00010938       0.00258002      -0.00832970
Ti       4.40404099       1.19026008      12.44137768      -0.00006950       0.00687276      -0.01014853
Ti       4.40401359       5.01348183      12.80271971       0.00000226      -0.00215633      -0.01002578
Ti       1.46800319       5.01496994      12.85103819      -0.00003520      -0.00301629      -0.00325858
