54
Lattice="4.4265 -2.555641 0.0 3.767997 6.526363 -0.031456 0.0 0.0 45.781652" Properties=species:S:1:pos:R:3:forces:R:3 job_name=Slab-1sol-CSL13-V-SLAB-V-SLAB-30 top_level=Slab-1sol solute=V energy=-409.87846428 stress_kbar_3x3="_JSON [[-16.55230818, -0.49990363, 0.56645824], [-0.49990364, -17.18625956, 1.45596934], [0.56645823, 1.45596933, 0.05637936]]" pbc="T T T"
Ti       5.38473231       4.32760504       0.82910498      -0.00093743      -0.01147855      -0.01360757
Ti       5.04104782       0.19253633       0.87471782      -0.00728423      -0.00228156      -0.00766026
Ti       2.18062236       0.51298804       1.54955948      -0.00040212      -0.00550078       0.00069615
Ti       2.70073045       4.59249093       1.54156048      -0.00916382      -0.00490391      -0.00588254
Ti       3.85923768      -1.81635622       2.45302472      -0.00013338      -0.00302516      -0.00040589
Ti       4.20886508       2.35624181       2.42600763      -0.00565213      -0.00899281       0.00706161
Ti       5.85285933      -0.00123783       3.46073173       0.00011473      -0.00180142      -0.00205708
Ti       4.84613273       4.99958954       3.41701236      -0.00228988       0.00040884       0.00268730
Ti       3.14297966       0.29908860       4.29999291       0.00109285      -0.00416475       0.01245292
Ti       6.45373875       2.69304888       4.27555240      -0.00667882      -0.00151913       0.01089455
Ti       4.67578925      -1.94535130       5.18171597       0.00223842      -0.00068152       0.00538421
Ti       3.65323456       2.97174812       5.16545916      -0.00132672      -0.00429705       0.00400806
Ti       5.32811448       0.72939316       6.13795328      -0.00292364      -0.00546308       0.00396522
Ti       5.68371207       4.75111903       6.10359506       0.00138733       0.00027222       0.00110965
Ti       2.97541240       5.10173766       6.96104018      -0.00107755      -0.00367458       0.00024413
Ti       2.47362184       0.91321104       6.96690621      -0.00178182      -0.00064304      -0.00155474
Ti       4.46183299       2.83274480       7.85741182       0.00170362      -0.00470928       0.00514147
Ti       4.09732369      -1.30339109       7.88264070       0.00531539      -0.00293916       0.00378019
Ti       1.73539449       2.96330450       8.83123036       0.00212357      -0.00043507      -0.00296862
Ti       5.17410775       5.50904525       8.80516318       0.00078277      -0.00223664      -0.00199062
Ti       3.47292777       0.82446739       9.67862218      -0.00254514      -0.00240363      -0.00456127
Ti       6.68180266       3.08663592       9.64076642       0.00036094       0.00367268      -0.00178802
Ti       3.92068346       3.48833525      10.53232364       0.00316212       0.00092472      -0.00423970
Ti       4.89137466      -1.50443629      10.54992990      -0.00083891      -0.00180083      -0.00265613
Ti       5.98505832       5.14214925      11.46537925       0.00430419       0.00311739      -0.00382316
Ti       5.68738681       1.15205692      11.56652084       0.00096721      -0.00882430      -0.00565175
Ti       3.26149805       5.62035515      12.33368935       0.00610186       0.00742615       0.00035864
Ti       2.65439363       1.32326105      12.34034980      -0.00245814      -0.00287727       0.00025754
Ti       4.62555289       3.19200987      13.21145938       0.00169465      -0.00100808      -0.00663601
Ti       4.40565908      -0.78300739      13.22342211       0.00091276       0.00115506       0.00099949
V        2.08324459       3.33424361      14.14089030       0.00221313      -0.00122373      -0.00017490
Ti       1.72847030      -0.70832657      14.13126236      -0.00385621      -0.00114612      -0.00249628
Ti       6.86152364       3.42181777      14.96392758       0.00633764       0.00401237       0.01040119
Ti       3.66203487       1.28661436      14.99834729      -0.00177449       0.00285651       0.00310161
Ti       4.18752009       3.95083420      15.87603652       0.00186666       0.01374769       0.01087505
Ti       0.76081999       1.28899392      15.86045496       0.00259801      -0.00190629       0.00354881
Ti       5.89865111       1.41693814      16.70226601       0.00412097       0.00284547       0.00574902
Ti       2.56161571      -0.87677532      16.75106522      -0.00109695       0.00448639       0.00788488
Ti       7.80687038       3.43943670      17.65699684       0.00502163       0.00503611       0.01240733
Ti       2.97700335       1.72744291      17.68331640      -0.00287293       0.01165609       0.01074355
Ti       5.05203460       3.50312867      18.52214628       0.00502182       0.00300009      -0.00203623
Ti       4.69020978      -0.43749941      18.56496452       0.00146629      -0.00241465      -0.00056267
Ti       2.33699468       3.91261902      19.35684567       0.00196206      -0.00039509      -0.00879217
Ti       1.90261371      -0.32978384      19.43008434      -0.00290153       0.00158257      -0.01097800
Ti       7.22449728       3.97883729      20.38772236      -0.00101868       0.00073931      -0.01249326
Ti       3.80642967       1.65257999      20.41406206      -0.00022868       0.00987136      -0.01693471
Ti       4.46259919       4.31733175      21.30912180       0.00580248       0.00082164      -0.00689322
Ti       1.12541928       1.71955340      21.27230521      -0.01196919       0.01048851       0.00209141
Ti       3.69731647       6.33595758      22.92402888       0.00042286       0.00497771       0.00330723
Ti       3.26624220       2.31782882      22.94655022       0.00162709       0.00544144       0.00674442
Ti       2.75393866      -0.37002946      22.02836613       0.00321931      -0.00895483      -0.00050100
Ti       6.10930987       1.90244342      21.93751308       0.00289631       0.01034939       0.00184043
Ti       3.34567264       2.49606316      45.67103007      -0.00140818      -0.00329680      -0.00577089
Ti       0.04908383       0.07172949      45.69405098      -0.00421806      -0.00389056      -0.00461939
