28
Lattice="5.088765 0.0 0.0 0.0 5.495746 0.0 0.0 0.0 32.722931" Properties=species:S:1:pos:R:3:forces:R:3 job_name=Slab-1sol-C1-Al-SLAB-Al-SLAB-12 top_level=Slab-1sol solute=Al energy=-207.15765448 stress_kbar_3x3="_JSON [[-15.79985214, -0.10188506, 0.46701027], [-0.10188502, -13.12928185, 0.47871639], [0.46701026, 0.4787164, -0.04763002]]" pbc="T T T"
Ti       5.08710490       5.41101715       0.38343473      -0.00258330      -0.00505506      -0.00137294
Ti       3.55225119       1.94410668       1.43468911      -0.00530196      -0.00099555       0.00537491
Ti       2.42327737       4.70323372       1.43197285       0.00166329       0.00164378       0.00642843
Ti       0.01824664       3.99226330       2.63605128      -0.00152144       0.00191062       0.00957159
Ti       0.86875459       1.25438625       2.67149464      -0.00410227      -0.00123053       0.00960902
Ti       3.36882996       0.36778207       3.87442505      -0.00450332      -0.00320572       0.00211615
Ti       2.61966139       3.12681968       3.85842033       0.00399021       0.00117139      -0.00295692
Ti       0.86887600       5.06091492       5.14673952       0.00401812      -0.00528295      -0.00597500
Ti       5.00522719       2.30852175       5.17793461      -0.00561208      -0.00235059       0.00011124
Ti       2.44368585       1.64814361       6.24573153      -0.01022341       0.00329646       0.00167790
Ti       3.34639772       4.38962293       6.37387910      -0.00215240      -0.00058215      -0.00212455
Ti       0.09694025       0.77706623       7.56950299      -0.00740728       0.00325225      -0.00032815
Al       0.77578908       3.52374761       7.56471826      -0.00360778       0.00237567       0.00253463
Ti       3.32911217       2.67488403       8.74353421       0.00159996      -0.00039934      -0.00013499
Ti       2.45045874       5.40337131       8.86898753      -0.00516163      -0.00503561       0.00096482
Ti       0.87219227       1.97346742      10.00589109       0.00557006       0.00077864      -0.00489083
Ti       5.01199613       4.71178597       9.98399536      -0.00479733      -0.00229130      -0.00297207
Ti       2.57707108       3.94095214      11.25264766      -0.00331184       0.00127033       0.00308568
Ti       3.41818763       1.20545814      11.21740145       0.00407946      -0.00180663      -0.00419942
Ti       0.81810210       0.39693435      12.43558615      -0.00080165       0.00441508      -0.00964086
Ti       0.04876971       3.14630299      12.50209222       0.00237505       0.00121108      -0.00284584
Ti       2.54357245       2.28611275      13.72680290       0.00685383      -0.00117438       0.00121078
Ti       3.41745658       5.05391685      13.71400921       0.00134764       0.00194362      -0.00111005
Ti       1.00696092       4.35183064      14.91367117       0.00477942      -0.00076019      -0.00443488
Ti       4.98656982       1.59363188      14.91497457       0.00897038      -0.00099585      -0.00185702
Ti       3.44081640       3.62352156      15.97531160       0.00840533       0.00824979      -0.00086652
Ti       2.55766443       0.86852324      16.00448321       0.00616517       0.00923265       0.00307681
Ti       0.89864801       2.66311024       0.38946397       0.00126976      -0.00958548      -0.00005191
