32
Lattice="5.872 0.0 0.0 0.0 6.890708 0.0 0.0 0.0 27.394398" Properties=species:S:1:pos:R:3:forces:R:3 job_name=Slab-1sol-T1g-V-SLAB-V-SLAB-14 top_level=Slab-1sol solute=V energy=-239.12294511 stress_kbar_3x3="_JSON [[-7.63382319, -0.00011866, 0.002934], [-0.00011867, -26.58976235, -0.11289065], [0.00293402, -0.11289064, 0.86174691]]" pbc="T T T"
Ti       5.86685992       2.28489041       0.89879951       0.00134851       0.00754396       0.01504685
Ti       2.94128108       2.28500465       0.89902218      -0.00134010       0.00728815       0.01431227
Ti       5.87075894       6.07880116       1.27004535       0.00129393      -0.00088848       0.00720490
Ti       2.93747922       6.07892664       1.26988979      -0.00130518      -0.00107765       0.00795418
Ti       4.40393732       3.95201187       2.49352988      -0.00034075      -0.00633320      -0.00996171
Ti       1.46807428       3.94716711       2.45671305       0.00032469      -0.00517489      -0.01030851
Ti       4.40409152       0.97691743       2.83501036      -0.00011119       0.00347625       0.00392680
Ti       1.46812948       0.98897659       2.83399418       0.00016863       0.00322741       0.00067747
Ti       0.03155114       5.78362630       4.12660081      -0.00172036       0.00633351      -0.00991926
Ti       2.90458671       5.78333699       4.12693794       0.00164889       0.00641755      -0.01040334
Ti       2.89897443       2.88256381       4.61282143       0.00435082      -0.00790287      -0.01588724
Ti       0.03712360       2.88257448       4.61282439      -0.00447564      -0.00804997      -0.01592628
Ti       4.40396805       0.75362620       5.73447958       0.00001446      -0.00001757       0.00400918
Ti       1.46812568       0.66861471       5.72287397       0.00013681      -0.00040527       0.00127840
V        1.46802256       4.72617975       6.26576194       0.00009175       0.00546693       0.00796602
Ti       4.40404079       4.73843601       6.28688005      -0.00020934       0.00345808       0.00715556
Ti       2.90093130       2.61053698       7.41625957      -0.00105753      -0.00777209      -0.00107071
Ti       0.03505906       2.61064561       7.41617795       0.00090869      -0.00776660      -0.00097731
Ti       2.93567372       6.57545473       7.92534262      -0.00036602       0.00983427      -0.00037510
Ti       0.00023104       6.57538642       7.92513349       0.00054806       0.00949627      -0.00086093
Ti       4.40373083       4.48117680       9.12712876       0.00030857      -0.00345360       0.01907224
Ti       1.46829194       4.45814298       9.05634544      -0.00029236      -0.00405729       0.01557369
Ti       4.40376336       1.49288873       9.57969636       0.00013177      -0.00283095       0.00661219
Ti       1.46823272       1.49886378       9.60787907      -0.00009863      -0.00156666       0.00768442
Ti       2.92542916       6.31403957      10.86898427      -0.00065761       0.00015532      -0.00173533
Ti       0.01068016       6.31403896      10.86888502       0.00067078      -0.00042147      -0.00183712
Ti       0.02890760       3.33979377      11.22445571       0.00220118       0.00411184       0.00501115
Ti       2.90710021       3.33996866      11.22417863      -0.00212638       0.00470463       0.00519525
Ti       1.46798966       1.23182115      12.45782552      -0.00030684       0.00188380      -0.01094603
Ti       4.40394621       1.21949697      12.41045218       0.00030969       0.00139979      -0.01011604
Ti       4.40374876       5.00455437      12.77340075       0.00050413      -0.00761866      -0.01437483
Ti       1.46820146       5.00298649      12.81926601      -0.00055344      -0.00946055      -0.01398083
