54
Lattice="4.4265 -2.555641 0.0 3.767997 6.526363 -0.031456 0.0 0.0 45.781652" Properties=species:S:1:pos:R:3:forces:R:3 job_name=Slab-1sol-CSL13-Al-SLAB-Al-SLAB-29 top_level=Slab-1sol solute=Al energy=-406.00497926 stress_kbar_3x3="_JSON [[-18.5982967, -0.809864, 1.22221315], [-0.809864, -19.05528523, 3.29951167], [1.22221316, 3.29951165, 0.13953682]]" pbc="T T T"
Ti       5.41782214       4.38407296       0.81770662      -0.01013358      -0.00715851      -0.00296873
Ti       5.06376299       0.20125747       0.81510199       0.00108868      -0.01306222      -0.00396267
Ti       2.21985155       0.58296425       1.51025772      -0.00639992      -0.00712328      -0.00905573
Ti       2.70806582       4.59927010       1.48907023      -0.00163037      -0.00980664      -0.00840799
Ti       3.94286095      -1.81874251       2.39760183      -0.00448174      -0.00855925      -0.00986690
Ti       4.25930294       2.37255085       2.38217266      -0.00009508      -0.00755513      -0.00763533
Ti       5.87265037       0.05337845       3.42295100       0.00275291      -0.00640781      -0.00710587
Ti       4.84226111       4.98135292       3.41511543      -0.00702347      -0.00519280      -0.00630574
Ti       3.13613001       0.27901367       4.23852200      -0.00684456      -0.00217787       0.00200815
Ti       6.47329133       2.74910754       4.23844669       0.00018575      -0.01038838       0.00189615
Ti       4.71885962      -1.93801233       5.13793516      -0.00231873      -0.01207029       0.00334127
Ti       3.70937030       2.93700654       5.13048549      -0.00574654      -0.00602174       0.00205507
Ti       5.27332092       0.70132838       6.11096465      -0.00057770      -0.00601057       0.00265573
Ti       5.68995438       4.79023334       6.09251486      -0.00189072      -0.00688603       0.00247516
Ti       2.95472927       5.03593061       6.90270219      -0.00472496      -0.00713352       0.00298485
Ti       2.51273689       0.96456351       6.90028647      -0.00289569      -0.00548614       0.00476578
Ti       4.51466698       2.83639706       7.84348286      -0.00176739      -0.00613441       0.00617246
Ti       4.14789667      -1.40592424       7.86258666      -0.00113985      -0.00441509       0.00781879
Ti       6.13706546       0.42857479       8.79370042       0.00026976      -0.00341414       0.00465806
Ti       5.10302484       5.47574918       8.79952264      -0.00288753      -0.00447265       0.00369483
Ti       3.42067879       0.73649169       9.56684545      -0.00098812      -0.00400259       0.00471366
Ti       6.76673539       3.10509598       9.60323407      -0.00132489      -0.00259483       0.00295788
Ti       3.89787785       3.34992112      10.54693819       0.00042211      -0.00266137       0.00205578
Ti       4.93186736      -1.50449770      10.55412462       0.00150949      -0.00376545       0.00108333
Ti       5.99303822       5.06964715      11.46933132       0.00092942       0.00103018      -0.00179442
Ti       5.55257540       1.15721130      11.50767917      -0.00043143      -0.00276988      -0.00211142
Ti       3.27764026       5.52114010      12.26757146       0.00024260      -0.00124459      -0.00148721
Ti       2.76846561       1.26384694      12.28631744       0.00132335       0.00219290      -0.00130449
Ti       4.68644701       3.23400189      13.24150653       0.00169577      -0.00035458      -0.00083803
Al       4.40421974      -0.96040914      13.24309228       0.00211211       0.00216548      -0.00111139
Ti       2.01558515       3.31364442      14.14873939       0.00325413       0.00277316      -0.00008176
Ti       1.65005007      -0.63420571      14.15408064       0.00192449       0.00328970       0.00076549
Ti       6.95447826       3.52494499      14.93424085       0.00433298       0.00547593       0.00457512
Ti       3.72240900       1.17355244      14.96386226       0.00008967       0.00318321       0.00240353
Ti       4.16436077       3.85737984      15.94239975       0.00091057       0.00590972       0.00072491
Ti       5.17031012      -1.13803169      15.94985697       0.00367323       0.00320717       0.00202659
Ti       5.82570024       1.52759413      16.77929169       0.00266591       0.00570983      -0.00230138
Ti       2.46152940      -0.92274212      16.85071866       0.00463280       0.00543789      -0.00164732
Ti       7.81256732       3.41472633      17.67839840       0.00317906       0.00857928      -0.00610961
Ti       3.00614419       1.74635182      17.66958390       0.00298451       0.00664822      -0.00513505
Ti       5.00065890       3.57118027      18.61669914       0.00364355       0.00821938      -0.00780035
Ti       4.63654008      -0.46581868      18.63509871       0.00333740       0.00820903      -0.00839012
Ti       2.28082809       3.88300417      19.44611785       0.00188659       0.01093569      -0.00635084
Ti       1.85053371      -0.23335996      19.49184118       0.00320614       0.00901005      -0.00462772
Ti       7.23086060       3.99701378      20.42886992       0.00516759       0.01104950       0.00309220
Ti       3.81454402       1.64574528      20.45845309       0.00095208       0.00877218       0.00782261
Ti       4.40890249       4.31706657      21.35771272      -0.00082948       0.01056190       0.00726039
Ti       1.09269487       1.79009015      21.36945709       0.00479938       0.00859914       0.00724114
Ti       3.68277726       6.36554187      22.97831685       0.00194969       0.01093056       0.00703355
Ti       3.25469753       2.31884098      23.00004794       0.00297157       0.01274893       0.00681218
Ti       2.71221569      -0.37116741      22.06922902       0.00046332       0.00917533       0.00695374
Ti       6.08971497       1.96818751      22.01151812       0.00208232       0.00885515       0.00711052
Ti       3.40735061       2.54393670      45.62326207      -0.00405438      -0.00714145      -0.00571473
Ti       0.07631936       0.08608345      45.64063406      -0.00245278      -0.00865833      -0.00704414
