34
Lattice="5.088765 0.0 0.0 0.0 9.739025 0.0 0.0 0.0 22.303587" Properties=species:S:1:pos:R:3:forces:R:3 job_name=Slab-1sol-T2-V-SLAB-V-SLAB-16 top_level=Slab-1sol solute=V energy=-252.37925226 stress_kbar_3x3="_JSON [[-27.48050052, -0.00942145, -0.00330368], [-0.00942145, -19.55276083, 0.47721586], [-0.00330368, 0.47721587, -0.33728009]]" pbc="T T T"
Ti       4.78380593       0.70825250       0.60957486      -0.00259343      -0.00919274       0.00116125
Ti       2.27427930       5.60511736       0.63475955      -0.00362109      -0.01132446       0.01212751
Ti       4.18562242       3.60860572       1.18053624       0.00084622      -0.00338901      -0.00034143
Ti       1.61854916       8.48455685       1.20726086      -0.00005688      -0.00976653       0.00727761
Ti       2.40416967       1.32140128       1.78715355      -0.00177829      -0.01884860      -0.00115715
Ti       4.96940902       6.19194172       1.78733850       0.00018307      -0.01217473       0.00267104
Ti       1.43490556       3.91924587       2.51121823       0.00636953       0.00529934      -0.00619282
Ti       3.97117794       8.77418216       2.50446722       0.00701813      -0.00236789      -0.00659985
Ti       4.82618658       1.70749431       3.10985736       0.00047828       0.01028800       0.00104586
Ti       2.28668694       6.59397714       3.15861932      -0.00124575       0.01398580      -0.00431102
Ti       1.51635965       9.26304701       3.85391334      -0.00568793      -0.00188807       0.00946272
Ti       4.06986866       4.41015865       3.78758303       0.00304276      -0.00017991       0.01089920
Ti       4.82622643       7.11082063       4.58653505       0.00529060      -0.00629703       0.01138446
Ti       2.29792431       2.24105973       4.55824466       0.00497492      -0.00661874       0.01670495
Ti       1.47713283       4.92647410       5.27697052      -0.00726813      -0.00299166      -0.00243348
Ti       3.96946146       0.00613883       5.26597376      -0.00389292      -0.00440623       0.00886064
V        2.34768673       7.52325255       5.92373867      -0.00320553      -0.00010600       0.00059858
Ti       4.88989417       2.65389999       5.92445555      -0.00165680      -0.00002045      -0.00068099
Ti       3.96953944       5.30117224       6.58170095      -0.00497528       0.00318118      -0.00717655
Ti       1.47696046       0.38115916       6.57155413      -0.00631175       0.00258810       0.00371613
Ti       4.82611783       7.93560433       7.26199116       0.00427281       0.00789104      -0.01320436
Ti       2.29788841       3.06687754       7.29011192       0.00520006       0.00611615      -0.01421869
Ti       1.51615637       5.78335572       7.99367557      -0.00363729       0.00236246      -0.01117687
Ti       4.06981935       0.89738081       8.06154282       0.00292597       0.00074557      -0.01022735
Ti       2.28671716       8.45316254       8.69027071      -0.00205444      -0.01379084       0.00336895
Ti       4.82594138       3.59989906       8.73893957       0.00233758      -0.01222930      -0.00330670
Ti       1.43492983       1.38829874       9.33816930       0.00549608      -0.00456458       0.00295284
Ti       3.97171934       6.27257331       9.34402941       0.00670721       0.00202185       0.00695847
Ti       4.96940230       8.85489952      10.06197225       0.00124536       0.01462328      -0.00314446
Ti       2.40375629       3.98606432      10.06200895      -0.00255975       0.01818377      -0.00121620
Ti       4.18539158       1.69879589      10.66842087       0.00195839       0.00279610       0.00056793
Ti       1.61834925       6.56238413      10.64202641      -0.00143247       0.01037746      -0.00742904
Ti       2.27448277       9.44181596      11.21354602      -0.00371626       0.01082948      -0.00805611
Ti       4.78406097       4.59938602      11.23934780      -0.00265298       0.00886719       0.00111490
