34
Lattice="5.088765 0.0 0.0 0.0 9.739025 0.0 0.0 0.0 22.303587" Properties=species:S:1:pos:R:3:forces:R:3 job_name=Slab-1sol-T2-Al-SLAB-Al-SLAB-15 top_level=Slab-1sol solute=Al energy=-248.52516679 stress_kbar_3x3="_JSON [[-25.67724277, 0.03066076, -0.0957724], [0.03066075, -18.04314533, 0.00105593], [-0.09577239, 0.00105594, -0.17362709]]" pbc="T T T"
Ti      -0.31704375       0.69523004       0.60752730       0.00058908       0.00441805       0.00245981
Ti       2.23563828       5.58714598       0.60497732       0.00333596       0.00529403       0.01042817
Ti       4.18972925       3.62512148       1.17624916      -0.00017355      -0.00825069      -0.00027966
Ti       1.60588903       8.49855894       1.21534483      -0.00268753      -0.00954220       0.00212026
Ti       2.38210072       1.35190796       1.69788141      -0.00437344       0.00589353      -0.00490019
Ti       4.93007322       6.20841369       1.75346148      -0.00176995       0.00661635       0.00445691
Ti       1.43244581       3.92383720       2.52070884       0.00042071      -0.00176491       0.00482209
Ti       3.93251325       8.82009307       2.54080859      -0.00043932      -0.00289458      -0.00460554
Ti       4.79156722       1.73440663       3.09336541       0.00659712       0.00432372      -0.00895581
Ti       2.25659032       6.60335320       3.10480895       0.00427346      -0.00042945      -0.00235726
Ti       1.51844562       9.33823347       3.84275066       0.00541552       0.00612416       0.01187748
Ti       4.06744920       4.42656626       3.80813050       0.00411650       0.00307448       0.00152529
Ti       4.87625705       7.11705184       4.56359611      -0.00144723      -0.00893343      -0.00241886
Ti       2.39101599       2.24545409       4.57813438      -0.00834487       0.00445230      -0.00717931
Ti       1.48143183       4.89632022       5.25131776      -0.00440963      -0.00439303       0.00470519
Al       4.05518529       0.00566557       5.25772515       0.00332804       0.00066225      -0.00028100
Ti       2.39294297       7.53115489       5.92426865      -0.00218589       0.00386646      -0.00255447
Ti       4.92188362       2.63392575       5.88619880      -0.00345361      -0.00283450      -0.00237518
Ti       4.03728871       5.30113711       6.58194089      -0.00221436       0.00164814      -0.00125481
Ti       1.51595150       0.42217592       6.59007928      -0.00073626       0.00104024       0.00109645
Ti       4.87535249       7.94929429       7.28732914      -0.00423240       0.00192938       0.00291613
Ti       2.28666007       3.11264301       7.31072143      -0.00150343      -0.00199117       0.00616472
Ti       1.50768382       5.75874068       8.05433391       0.00209279      -0.00280592      -0.00244746
Ti       4.01554756       0.88845639       7.99762415       0.00391783      -0.00185072      -0.00709664
Ti       2.26493109       8.42777962       8.78252860       0.00282971       0.00471545      -0.00121003
Ti       4.81759061       3.57351487       8.73474160      -0.00084497       0.00136179       0.00186665
Ti       1.39836396       1.35022640       9.31382563      -0.00114959       0.00149186       0.00190260
Ti       3.96902336       6.23151776       9.33532965       0.00242440      -0.00156612       0.00100633
Ti       4.91333961       8.83705899      10.08307880      -0.00255083      -0.00980508       0.00010229
Ti       2.39810926       3.94713912      10.09677166       0.00212908      -0.00545233      -0.00253413
Ti       4.17237850       1.66920949      10.64989817       0.00022096       0.00947235      -0.00150689
Ti       1.63542894       6.52898448      10.68224509      -0.00150320       0.00751127      -0.00069719
Ti       2.22126837       9.46923670      11.25815336       0.00035851      -0.00571386       0.00138423
Ti      -0.28998323       4.56290063      11.24165145       0.00197039      -0.00566781      -0.00618019
