26
Lattice="4.6568 0.0 0.0 0.0 7.770572 0.0 0.0 0.0 25.044546" Properties=species:S:1:pos:R:3:forces:R:3 job_name=Slab-1sol-CSL7-Al-SLAB-Al-SLAB-10 top_level=Slab-1sol solute=Al energy=-189.75000401 stress_kbar_3x3="_JSON [[-19.76539822, 0.00358503, -0.58573491], [0.00358503, -23.3258724, -0.97084528], [-0.58573493, -0.97084528, -0.26107937]]" pbc="T T T"
Ti       3.06914681       1.82831350       0.88422212       0.00771437       0.00902442       0.00352876
Ti       0.74086994       7.73753595       0.63614022       0.00674337       0.01842370      -0.00378009
Ti       0.74088104       4.99522772       1.40287736       0.00753485       0.00681008      -0.00169355
Ti       3.07308362       6.73156403       1.72664500       0.00561791       0.01719544      -0.00030059
Ti       0.74378317       2.24747486       2.38748203       0.00765003       0.00239925      -0.00052398
Ti       3.07312671       3.86166419       2.60215042       0.00603310       0.00705591       0.00268567
Ti       0.75055356       7.13788036       3.31524383       0.00326216       0.00553855       0.00999413
Ti       3.08099074       1.08336794       3.59118497       0.00313444       0.01008556      -0.01312857
Ti       0.75014895       4.37263044       4.19851456       0.00365726       0.00826387       0.00821945
Ti       3.08149692       6.03300973       4.51443677       0.00273497       0.00808104      -0.00190359
Al       0.75571667       1.62899359       5.16701625       0.00169506      -0.00276631      -0.00482628
Ti       3.08416350       3.23510913       5.45812701       0.00193643       0.00686725      -0.00076327
Ti       0.75829115       6.64828780       6.08850779       0.00072280      -0.00299711      -0.01221308
Ti       3.08671502       0.52695805       6.36578575       0.00055579       0.00108729      -0.00070965
Ti       0.76217352       3.84803183       7.06660846      -0.00103461      -0.00295398      -0.00270865
Ti       3.09171684       5.53769600       7.35425224      -0.00146863      -0.00439602       0.00192835
Ti       0.76477161       1.12074102       7.94638411      -0.00255376      -0.00131057       0.01730456
Ti       3.09549763       2.76294053       8.41102768      -0.00252803      -0.01177136       0.00224140
Ti       0.76843858       6.13688525       8.94387188      -0.00344681      -0.00666820       0.00950942
Ti       3.09926068       0.06737099       9.23668097      -0.00555879      -0.00176537      -0.00200983
Ti       0.77266318       3.40577773       9.89173569      -0.00522811      -0.01806994       0.00253942
Ti       3.10179208       4.99386195      10.15000272      -0.00545009      -0.00065375      -0.00324379
Ti       0.77617506       0.55765232      10.75819425      -0.00807662      -0.01107324      -0.00620737
Ti       3.10742569       2.23922422      11.15586411      -0.00893344      -0.01474632      -0.00288187
Ti       0.77492828       5.43094012      11.62300826      -0.00543500      -0.00598809       0.00216592
Ti       3.10881004       7.27528968      11.91173125      -0.00927867      -0.01567211      -0.00322290
