34
Lattice="5.088765 0.0 0.0 0.0 9.739025 0.0 0.0 0.0 22.303587" Properties=species:S:1:pos:R:3:forces:R:3 job_name=Slab-1sol-T2-V-SLAB-V-SLAB-13 top_level=Slab-1sol solute=V energy=-252.39214037 stress_kbar_3x3="_JSON [[-25.7449708, 0.0306893, 0.05910135], [0.03068932, -18.59625639, -0.14026122], [0.05910137, -0.14026122, -0.0804412]]" pbc="T T T"
Ti       4.80469362       0.76441816       0.64170704       0.00024498      -0.00769820       0.01025479
Ti       2.26553097       5.57694093       0.64022389      -0.00619484       0.00093510       0.00072693
Ti       4.19729403       3.62024019       1.18747376      -0.00045619      -0.00259449      -0.00881282
Ti       1.63482300       8.53774585       1.19292127      -0.00028575       0.00468703      -0.00087273
Ti       2.41009742       1.38572834       1.85652120       0.00205247      -0.00999513      -0.00512737
Ti       4.95720317       6.20046190       1.77151602      -0.00191637       0.00328458      -0.00718684
Ti       1.38298652       3.93381873       2.58192593       0.01155435       0.01223438      -0.00399926
Ti       3.98230798       8.80813768       2.50171802       0.00554262       0.00980706      -0.00449039
Ti       4.83077737       1.73117272       3.15397508      -0.00413550      -0.00896990       0.00053692
Ti       2.28138266       6.62458371       3.11142659      -0.01018683      -0.00244113      -0.00031881
Ti       1.51269050       9.30189070       3.83688404      -0.00346444       0.00099391       0.00415495
Ti       3.94469700       4.39920691       3.78356202       0.00263175       0.00032654       0.00871192
Ti       4.84732707       7.08917121       4.54282611       0.00142704       0.00122148       0.01432675
V        2.28501063       2.19462478       4.57103630      -0.00166930      -0.00025884       0.01636278
Ti       1.47881823       4.84597659       5.22372772      -0.00052466      -0.00197409       0.01219272
Ti       3.97441980       0.02930179       5.24846250      -0.00170220      -0.00217293       0.00806269
Ti       2.33560316       7.50508854       5.93292088       0.00150879       0.00032471      -0.00033093
Ti       4.87417380       2.66101940       5.87694874      -0.00150950       0.00020812       0.00058232
Ti       4.03021867       5.29227714       6.59870793       0.00127705      -0.00199367      -0.00836676
Ti       1.47891044       0.43447675       6.56152723       0.00406106       0.00267827      -0.01212807
Ti       4.85876772       7.95687445       7.28286470      -0.00032932       0.00024987      -0.01088978
Ti       2.31866866       3.06047817       7.23571240      -0.00044508      -0.00050729      -0.01372698
Ti       1.49372719       5.73873308       8.05011347      -0.00224218       0.00275959      -0.00603570
Ti       4.05683895       0.88531636       8.04797231      -0.00120899       0.00153139      -0.00171841
Ti       2.27617891       8.44430527       8.72750273      -0.00199902       0.00404418      -0.00061461
Ti       4.83072227       3.55511813       8.70408285      -0.00390018       0.00425310       0.00083175
Ti       1.43183227       1.38254910       9.33257677       0.00472643      -0.01060944       0.00323510
Ti       3.97081079       6.24700906       9.32085831       0.00642277      -0.00576967      -0.00190347
Ti       4.95621754       8.84058545      10.08118182       0.00182513       0.00399373       0.00441829
Ti       2.43191206       3.97030499      10.06103331      -0.00128068      -0.00011920       0.00505419
Ti       4.18700241       1.68164682      10.66586894       0.00176031      -0.00072892       0.00147969
Ti       1.65206250       6.54934273      10.66073108       0.00272313      -0.00040139       0.00577738
Ti       2.25860222       9.45066969      11.23136534      -0.00159089       0.00333778      -0.00792723
Ti       4.82826999       4.57324040      11.20963181      -0.00271597      -0.00063653      -0.00225899
