54
Lattice="4.4265 -2.555641 0.0 3.767997 6.526363 -0.031456 0.0 0.0 45.781652" Properties=species:S:1:pos:R:3:forces:R:3 job_name=Slab-1sol-CSL13-Al-SLAB-Al-SLAB-32 top_level=Slab-1sol solute=Al energy=-405.9954573 stress_kbar_3x3="_JSON [[-18.82246794, -0.41101098, 1.45527767], [-0.41101104, -19.08412724, 2.9468932], [1.45527768, 2.94689322, -0.14733309]]" pbc="T T T"
Ti       5.41335126       4.35697065       0.82687560      -0.00308877      -0.00578856       0.01805239
Ti       5.03156846       0.16487222       0.79423645       0.00324685      -0.00425660       0.00314465
Ti       2.20533776       0.55785738       1.50773211      -0.00307077       0.00286277       0.00404861
Ti       2.66487239       4.56036852       1.49108143       0.00310195      -0.00916654       0.00499150
Ti       3.93895802      -1.84767987       2.40439990      -0.00516485      -0.00628410      -0.00241360
Ti       4.27395378       2.30576691       2.40397578      -0.00638529       0.00356616      -0.00693282
Ti       5.88872390       0.05084130       3.38691712       0.00360600      -0.00399808      -0.00350628
Ti       4.80530608       4.94812170       3.40767736       0.00217181      -0.00197092      -0.00946788
Ti       3.08613783       0.26274052       4.24533602      -0.00394928      -0.00537571      -0.00853838
Ti       6.46207405       2.74768007       4.25202293      -0.00379846      -0.00238245      -0.00791561
Ti       4.73787842      -1.99148573       5.15988247      -0.00323526      -0.00154967      -0.00794840
Ti       3.71109420       2.91693867       5.14019940      -0.00132557      -0.00652000      -0.00528698
Ti       5.24130132       0.64926528       6.06920789       0.00034342       0.00076411      -0.00353694
Ti       5.68965054       4.83366133       6.06529671      -0.00132239      -0.00425122      -0.00084708
Ti       7.30621262       2.44391327       6.92253456      -0.00180911      -0.00179855      -0.00618852
Ti       2.51776598       0.98809669       6.93648314       0.00076788      -0.00476931      -0.00398562
Ti       4.56766767       2.77649821       7.84047581      -0.00312782      -0.00157661       0.00074181
Ti       4.13707680      -1.41686784       7.86396136      -0.00342657       0.00325468       0.00044890
Ti       6.11974497       0.49158369       8.74557160       0.00159291      -0.00088549       0.00633385
Ti       5.04504265       5.43955135       8.73569064      -0.00090539      -0.00813448       0.00391477
Ti       3.34284799       0.67997562       9.63491629       0.00354143       0.00298271       0.00530688
Ti       6.76037972       3.15193559       9.64882391      -0.00306858      -0.00062140       0.00631281
Ti       3.90762428       3.32530565      10.52470034       0.00053864       0.00106369       0.01215039
Ti       5.00894658      -1.53631851      10.55226474      -0.00059664      -0.00280801       0.00970038
Ti       5.89583040       5.23092717      11.39826372      -0.00375080      -0.00313785       0.00785635
Ti       5.54524321       1.11799271      11.44351851      -0.00196858       0.00147779       0.00458035
Ti       3.18669654       5.38961348      12.34185856       0.00199324       0.00651451       0.00388381
Ti       2.79155683       1.36016536      12.34537379      -0.00061812       0.00171291       0.00515282
Ti       4.87250690       3.19047890      13.19567008      -0.00084904      -0.00301667       0.00373027
Ti       4.33082538      -0.99494719      13.25220584       0.00462012       0.00522653       0.00673013
Ti       6.39023711       0.88772622      14.11071798       0.00179726       0.00384545       0.00060651
Ti       1.59424285      -0.68746933      14.15642089       0.00146543       0.00327394      -0.00312000
Al       7.01146175       3.53917943      15.00905473       0.00452940       0.00402195      -0.00093016
Ti       3.60289315       1.15993903      15.01702560       0.00324864       0.00029513      -0.00123704
Ti       4.20686230       3.83019832      15.90004064       0.00575021      -0.00052977       0.00028593
Ti       5.24020094      -1.13828033      15.93598801      -0.00012556      -0.00008810       0.00058316
Ti       5.81353190       1.58697797      16.78029995      -0.00016794       0.00234522      -0.00422672
Ti       2.50646262      -0.91756406      16.82052490       0.00487573       0.00618114      -0.00126345
Ti       3.44710915       5.94884826      17.68831299      -0.00028860      -0.00171651      -0.00128478
Ti       3.03375127       1.80091566      17.70248909       0.00033812      -0.00216077      -0.00263319
Ti       5.04174243       3.63637778      18.63604858       0.00042480       0.00823441      -0.00939712
Ti       4.64435364      -0.47738498      18.59945320       0.00215791       0.00413063      -0.00523950
Ti       6.69220561       1.37164497      19.45786577       0.00124425      -0.00262339      -0.00197920
Ti       1.88023013      -0.18671508      19.47541841       0.00365177      -0.00501794      -0.00649861
Ti       7.29566048       4.02844313      20.43018473      -0.00145999       0.00878801      -0.00733640
Ti       3.85378307       1.65330754      20.45503017      -0.00065740       0.00207756      -0.00463209
Ti       4.41205716       4.33091598      21.34773432      -0.00189880      -0.00831368      -0.00066577
Ti       1.12551543       1.86655225      21.36674045      -0.00102627       0.00558903      -0.00322241
Ti       3.72951567       6.41548965      22.98310808       0.00198355       0.00442903       0.00614744
Ti       3.27945011       2.32393302      22.99544720       0.00088353       0.01424181       0.00538042
Ti       2.71672678      -0.35419642      22.06297321       0.01070885       0.00193617      -0.01078551
Ti       6.12366478       2.03233082      22.02477920      -0.00334130       0.00530607       0.00485916
Ti       3.38886744       2.52009098      45.64211245      -0.00498557      -0.00695885       0.00867462
Ti       0.05524057       0.02571509      45.65127376      -0.00317100       0.00157980      -0.00259785
