36
Lattice="5.871999 0.0 0.0 0.0 6.890708 0.0 0.0 0.0 27.401158" Properties=species:S:1:pos:R:3:forces:R:3 job_name=Slab-1sol-T1m-Al-SLAB-Al-SLAB-13 top_level=Slab-1sol solute=Al energy=-266.36842748 stress_kbar_3x3="_JSON [[-10.29588983, 0.00030839, 0.00088196], [0.00030839, -25.5939099, 0.34499968], [0.00088194, 0.3449997, -0.48193148]]" pbc="T T T"
Ti       2.93600563       6.08782323       0.41151903       0.00044924      -0.00112675      -0.00411123
Ti       4.43328777       3.95053707       1.58410221       0.00077473       0.00182415       0.01487776
Ti       1.43872245       3.95079744       1.58402473      -0.00080713       0.00229760       0.01582674
Ti       4.42096523       0.97468160       1.95550420       0.00186545      -0.00928148       0.01072708
Ti       1.45095254       0.97444636       1.95557013      -0.00173694      -0.00909692       0.01139903
Ti       2.93614812       5.79677240       3.24379397       0.00015812       0.00461795       0.00685228
Ti      -0.00006929       5.76688769       3.25174117      -0.00006754       0.00653192       0.00188354
Ti       2.93604767       2.81912738       3.66548438       0.00076420       0.00431304       0.00118953
Ti       0.00002294       2.83680014       3.74684120      -0.00071018      -0.00100547       0.00043144
Ti       4.40108354       0.68987650       4.90144407       0.00615369      -0.00903265      -0.00742456
Ti       1.47106283       0.68971807       4.90163323      -0.00633430      -0.00855130      -0.00709535
Ti       4.42747536       4.68920947       5.42110872      -0.00120587       0.00442471      -0.01167339
Ti       1.44459376       4.68917009       5.42104696       0.00126994       0.00467188      -0.01080717
Al       0.00006149       2.51674775       6.56943703       0.00020597      -0.00301392       0.00369695
Ti       2.93590858       2.51029865       6.53250321      -0.00036858      -0.00265470      -0.00597126
Ti       0.00009644       6.59109183       7.13962903      -0.00003916       0.00133812      -0.01514179
Ti       2.93591668       6.48729864       7.11806535       0.00018092       0.00118003      -0.00907777
Ti       1.43545081       4.36515938       8.25699585      -0.00018741       0.00249128       0.00361264
Ti       4.43665403       4.36525580       8.25714291       0.00014712       0.00225523       0.00390900
Ti       1.45306033       1.54560105       8.81487853      -0.00619132       0.00211819       0.00377523
Ti       4.41893313       1.54569857       8.81499962       0.00625862       0.00155909       0.00362165
Ti       2.93604179       6.29348545       9.94493329      -0.00009690      -0.00559546       0.00246162
Ti       0.00000513       6.30806199       9.94078389      -0.00001192      -0.00250367       0.00139638
Ti       2.93595643       3.34851192      10.47248311       0.00007412      -0.00337302       0.00385156
Ti       0.00001077       3.35327607      10.51864149      -0.00002478      -0.00160322       0.00376103
Ti       4.39565442       1.24503565      11.74498943       0.00226898       0.00731616      -0.00642632
Ti       1.47636211       1.24497715      11.74484668      -0.00217072       0.00772040      -0.00607921
Ti       4.40667461       5.20726747      12.12345661       0.00287608      -0.00233223      -0.01475745
Ti       1.46536613       5.20733970      12.12339213      -0.00284477      -0.00254173      -0.01497306
Ti       2.93611830       6.86623456      13.70535241       0.00012472       0.00516557       0.00497479
Ti       2.93620262       3.06212815      13.28990100      -0.00037450       0.00133131       0.00590210
Ti      -0.00003164       6.85922337      13.70542810      -0.00040621       0.00393888       0.00298706
Ti      -0.00013835       3.06173509      13.31463799       0.00029120       0.00114750       0.00601229
Ti       2.93610425       2.28202825       0.04244150       0.00150254      -0.00491228       0.00244820
Ti      -0.00007533       2.27671825       0.00383096      -0.00135078      -0.00196236      -0.00009484
Ti      -0.00004537       6.06654788       0.38559094      -0.00043662       0.00234414      -0.00196451
