100
Lattice="4.4265 -2.555641 0.0 3.767997 6.526363 -0.031456 0.0 0.0 61.781652" Properties=species:S:1:pos:R:3:move_mask:L:1:forces:R:3 job_name=BondOrder-VacuumGB-CSL13-Al-Al-56-d-2.88 top_level=BondOrder-VacuumGB solute=Al energy=-757.84952651 stress_kbar_3x3="_JSON [[-34.34684943, -2.05177933, -0.77482767], [-2.05177931, -37.97464671, 0.81691937], [-0.77482767, 0.81691931, -23.5194275]]" pbc="T T T"
Ti       2.41900978      -0.98356681       8.10296221  F       0.16898991      -0.00433385       1.74475348
Ti       5.71355534       1.46613124       8.08871373  F      -0.07826357       0.13761380       1.74105276
Ti       4.98040026      -0.92499278       9.41292143  F       0.44893599      -0.03535529       0.04654653
Ti       4.49107196       3.70990892       9.39916510  F      -0.24538779       0.36859546       0.03774460
Ti       7.03953541       3.75502721      10.56333347  F      -0.14500842      -0.07011758      -1.11783710
Ti       3.75214637       1.29904799      10.57820753  F       0.02091416      -0.16620824      -1.12142870
Ti       1.62571426      -0.54965276      10.95859726  F       0.25232092      -0.16103008      -0.22048257
Ti       2.07085999       3.54087448      10.93837141  F      -0.26207558       0.14122584      -0.20930512
Ti       4.74916030       3.49250526      12.19843009  F      -0.02324463      -0.12474341      -0.28424705
Ti       4.68171659      -0.81950816      12.21774158  F      -0.09941326      -0.08156602      -0.28801518
Ti       3.36417173       5.70240619      13.16843192  F      -0.08258501       0.03535260       0.06352692
Ti       2.87006150       1.64703175      13.18665588  F       0.07087950      -0.05710994       0.06218368
Ti       2.31239400      -1.07720907      13.83389501  F       0.02377773      -0.04577647       0.03649088
Ti       5.71347525       1.30994506      13.81934136  F      -0.04817152      -0.00438281       0.03907227
Ti       4.13388003       3.63220218      14.95652435  F      -0.00970208       0.01751210      -0.03842519
Ti       5.13344722      -1.29624185      14.97175967  F       0.01900767       0.00073499      -0.03891276
Ti       6.83932991       3.39265120      15.77974159  F      -0.00051551      -0.01432057      -0.02884655
Ti       3.56565473       0.91804234      15.79076213  F      -0.01050989      -0.00898763      -0.02768202
Ti       6.28309973       0.71304754      16.67326337  F      -0.00214704      -0.01260313      -0.00418795
Ti       5.30130418       5.62685410      16.66483985  F      -0.00804827      -0.00806518      -0.00407276
Ti       4.74434778       2.95638894      17.64853132  F      -0.00547250      -0.01056313       0.01128962
Ti       4.26442149      -1.10701797      17.66434524  F      -0.00325287      -0.01059724       0.01120895
Ti       3.05971660       5.22422448      18.44280961  F      -0.00727277      -0.00854260       0.00915597
Ti       2.64087218       1.12051359      18.45752967  F      -0.00279630      -0.00997238       0.01019622
Ti       5.84163508       4.99602452      19.51869852  F      -0.00226437      -0.01400129       0.00261412
Ti       5.49467894       0.84364732      19.53783096  F      -0.01115765      -0.00953009       0.00239785
Ti       0.51139097       0.68613922      20.28190179  F       0.00072238      -0.00339332      -0.00850672
Ti       3.77754263       3.16542245      20.27378379  F      -0.00010669      -0.00495675      -0.00814545
Ti       3.15368545       0.52303587      21.18516707  F      -0.00447701      -0.00129194       0.00021444
Ti       6.73703646       2.80882010      21.17152619  F       0.00123242      -0.00714484       0.00183767
Ti       5.03782406       5.23166493      22.41411827  F      -0.00315507      -0.00246981       0.00581653
Ti       1.69649105       2.80791800      22.42447834  F      -0.00029078      -0.00375845       0.00466185
Ti       4.49055701       2.45698793      22.85800925  F      -0.00296256      -0.00467772      -0.00394771
Ti       3.99877557      -1.60324657      22.87043844  F      -0.00187184      -0.00279020      -0.00560506
Ti       7.04029883       2.46967614      23.95970736  F      -0.00476570       0.00258553       0.00164868
Ti       2.73853366       0.60103540      23.98242160  F       0.00476940      -0.00195652       0.00269882
Ti       5.80450734       4.69677216      25.32183449  F       0.00214823       0.00177130       0.00714899
Ti       5.29115917       0.63852964      25.33096529  F       0.00105025       0.00201524       0.00567125
Ti       3.62527209       2.84216633      25.45973923  F      -0.00014882       0.00072793      -0.00041294
Ti       0.35549787       0.38342243      25.48206210  F       0.00122950      -0.00415347      -0.00369296
Ti       2.81737361       0.47632190      26.79970408  F      -0.00500964       0.00439180       0.00157353
Ti       6.91700047       2.47228345      26.76842561  F       0.00316331       0.00016567       0.00274425
Ti       4.95847512       5.13819578      28.20016455  F       0.00157044       0.00234221      -0.00037253
Ti       1.69112085       2.65830160      28.25746547  F      -0.00014639       0.00282591      -0.00315269
Ti       4.43514949       2.31947478      28.06650633  F      -0.00097895       0.00510590      -0.00340168
Ti       3.92935735      -1.72166284      28.10601788  F       0.00246248       0.00612168      -0.00295026
Ti       6.77657123       2.48847087      29.57947821  F       0.00491822       0.01119896       0.00708805
Ti       2.91601912       0.39695301      29.66472388  F       0.00205056       0.00155174       0.00138016
Ti       3.68423184       2.90155731      30.61693379  F       0.00116494       0.00295591      -0.00388148
Ti       0.31017601       0.31768043      30.67952869  F      -0.00390370       0.00515188      -0.00828737
Ti       5.75968480       4.67228435      31.11651770  F       0.00247513       0.00767466       0.00193763
Ti       5.40580041       0.52479476      31.14021877  F       0.00175412       0.00254960       0.00009262
Ti       2.29004569       0.79895292      32.42356037  F       0.00601887       0.00889442       0.00459906
Ti       7.19128912       2.44295337      32.40046883  F       0.00697086       0.00325307      -0.00372915
Ti       3.98556384      -1.25555176      33.15937575  F       0.00322687       0.00602465      -0.00349113
Ti       4.38025011       2.53217745      33.21856536  F       0.00625058       0.00665894      -0.00229936
Al       6.03656521       0.41025156      34.07691039  F       0.00466948       0.00384075       0.00135736
Ti       5.10872930       5.23756095      33.97057767  F       0.00173069       0.00930155       0.00094712
Ti       3.22171870       0.73109730      35.08001679  F       0.00380063       0.00610173       0.00138150
Ti       6.46833602       3.02389249      35.06674443  F       0.00174975       0.00674030      -0.00137063
Ti       4.88142915      -1.70497529      35.78948448  F       0.00239130       0.00851417       0.00070977
Ti       3.80665132       3.48408029      35.80503448  F       0.00300053       0.01026633       0.00062215
Ti       5.51395004       0.96047265      36.85149106  F       0.00478446       0.00833254       0.00106095
Ti       5.84198881       5.19967776      36.82942762  F       0.00281889       0.00585872       0.00381592
Ti       7.50994130       2.85442739      37.67749674  F       0.00574531       0.00500613      -0.00136602
Ti       2.57571067       1.32196372      37.73052695  F       0.00509921       0.00726224      -0.00215550
Ti       4.64426456       3.16614054      38.49230820  F       0.00169613       0.00895914       0.00003453
Ti       4.35407297      -0.99577584      38.54045581  F       0.00576981       0.00319772      -0.00118460
Ti       6.29637119       0.82318175      39.66852446  F       0.00183059       0.00237247       0.00058328
Ti       1.48524555      -0.78274962      39.70815670  F       0.00057577       0.00501503       0.00065942
Ti       3.58065438       1.07728385      40.30826557  F       0.00401206       0.00504419      -0.00214431
Ti       6.83683967       3.54983406      40.29395276  F       0.00278939       0.00499514      -0.00423459
Ti       4.24614129       3.63447042      41.27804578  F       0.00582418      -0.00359770       0.00268523
Ti       4.96963473      -1.13251133      41.29111126  F      -0.00244149       0.00426864       0.00575309
Ti       2.31636878      -1.08090490      42.55310101  F       0.00295043       0.00793671       0.00423369
Ti       5.63161489       1.35651971      42.54385800  F       0.00354919       0.00742232       0.00246394
Ti       3.33791748       5.76787799      42.89603644  F       0.00249441       0.00374115      -0.00091274
Ti       2.85099069       1.69198808      42.92049774  F       0.00129573       0.00444693      -0.00306650
Ti       4.58307472       3.55182108      44.07573237  F       0.01097041       0.01015953       0.00960431
Ti       4.74316342      -0.89204554      44.09208011  F       0.00298798       0.01475272       0.00923240
Ti       2.03627960       3.51030803      45.38763254  F       0.00157239      -0.00278839       0.00644090
Ti       1.56138608      -0.56857867      45.40695167  F      -0.00395237      -0.00023339       0.00573601
Ti       7.00027276       3.73399498      45.56304442  F      -0.01654512       0.00817652      -0.01904125
Ti       3.70013046       1.28912935      45.57914056  F       0.01538030      -0.01029561      -0.01990945
Ti       4.49832705       3.65371813      46.85831007  F       0.00995941       0.00487854      -0.03147902
Ti       4.88962385      -0.92215724      46.87304613  F      -0.00147175       0.01239255      -0.03289562
Ti       5.68880550       1.44107095      48.21820130  F       0.02889032      -0.05773575      -0.03482597
Ti       2.38520694      -1.00186883      48.23318563  F      -0.06465579      -0.00325097      -0.03583629
Ti       3.38936168       5.85938428      48.26627730  F       0.05991576      -0.04469394       0.02888136
Ti       2.93438430       1.77108743      48.28490929  F      -0.07026136       0.02887394       0.02638871
Ti       4.55285679       3.65517175      49.62594723  F      -0.00535059       0.06895138       0.33679137
Ti       4.87665565      -0.88421369      49.64186612  F       0.06487793       0.02773545       0.34325959
Ti       2.07388835       3.55491116      51.03948724  F       0.14895336      -0.01029207       0.64488158
Ti       1.61007044      -0.52780301      51.05675831  F      -0.09625199       0.13143491       0.65091466
Ti       7.04952426       3.77215462      50.98136348  F       0.44402375      -0.06281656       0.20813381
Ti       3.73664158       1.33389629      50.99579422  F      -0.27702136       0.35517750       0.21814489
Ti       4.59121801       3.65283792      52.39492925  F       0.16404954      -0.34156682       0.01214073
Ti       4.86900899      -0.85742652      52.41096245  F      -0.38598684      -0.02362797       0.00846502
Ti       3.42439561       5.87533088      53.68415029  F       0.06347506      -0.11720483      -1.38232069
Ti       2.95686873       1.79545423      53.70166596  F      -0.14259376      -0.00365477      -1.38460804
