64
Lattice="5.088765 0.0 0.0 0.0 9.739025 0.0 0.0 0.0 38.303587" Properties=species:S:1:pos:R:3:move_mask:L:1:forces:R:3 job_name=BondOrder-VacuumGB-T2-Al-Al-47-d-4.86 top_level=BondOrder-VacuumGB solute=Al energy=-477.75301271 stress_kbar_3x3="_JSON [[-18.74328826, 0.34321016, 0.05931333], [0.34321015, -21.75756559, 0.13358648], [0.05931332, 0.13358649, -20.45359336]]" pbc="T T T"
Ti       2.53639823       9.26252372       8.00908852  F       0.85651466       0.02905452       0.98060396
Ti       5.07871469       4.39202758      30.30074196  F      -0.87315209       0.01613012      -1.01691883
Ti       1.26691420       1.89181535       8.60271752  F      -0.97102376      -0.62715131       0.72951953
Ti       3.81368333       6.75854248       8.60218126  F      -0.69166571       0.18625108       0.68935170
Ti       2.70209350       4.08595924       9.38905185  F       0.92990819      -0.40322978       0.64086193
Ti       0.15404709       8.96128594       9.38652382  F      -0.24288950      -0.27549804       0.03095827
Ti       1.02927905       6.22304219      10.11808402  F       0.18348393       0.34521945      -0.25806213
Ti       3.57447067       1.35330570      10.11881179  F       0.10231877       0.10448306      -0.52444922
Ti       0.22245027       3.50219235      10.76296321  F      -0.15254496       0.34672673      -0.17435332
Ti       2.76982497       8.36705933      10.75947759  F       0.06493987       0.23646935      -0.50920421
Ti       1.10846532       0.86919824      11.50210753  F      -0.05469920       0.07247531      -0.14184236
Ti       3.65147386       5.74155454      11.50092012  F      -0.05902723       0.03843877      -0.40890393
Ti       2.75609548       3.10977781      12.18778004  F       0.07727535      -0.05027255      -0.19391135
Ti       0.21208446       7.97632965      12.18981013  F       0.05599745      -0.05801730      -0.03781199
Ti       3.61393404       0.43607458      12.85165781  F      -0.02624503       0.07105898      -0.07802456
Ti       1.06873225       5.30570395      12.85307505  F      -0.04653381      -0.03992437      -0.12711908
Ti       2.74934269       7.52283195      13.57639998  F       0.01045425      -0.00684488       0.03912440
Ti       0.20661913       2.65527699      13.57682132  F      -0.04153795      -0.01745678      -0.03792371
Ti       3.61256516       4.87162587      14.29834599  F       0.01883602       0.01061877       0.00406019
Ti       1.06775012       9.73789527      14.30171671  F       0.01055795       0.01232811      -0.04592748
Ti       0.20826789       7.06863304      14.96390912  F       0.01061198       0.00373693      -0.01934154
Ti       2.75261476       2.20171112      14.95349054  F      -0.00509023       0.00268583      -0.02444583
Ti       1.10938130       4.44312825      15.65613154  F      -0.01040472       0.01698257      -0.00620586
Ti       3.65172830       9.30767384      15.65030940  F      -0.01089023       0.00463193       0.00101130
Ti       0.22612945       1.80508933      16.38190791  F      -0.01023449      -0.00190907      -0.00293434
Ti       2.77133124       6.67815657      16.39477791  F      -0.01348420       0.00428778      -0.01670856
Ti       1.02373739       8.81634003      17.04210854  F      -0.00641952      -0.00546351       0.02236854
Ti       3.57901493       3.94938890      17.02395263  F      -0.00926927      -0.00147652      -0.00739290
Ti       2.69089822       1.20944082      17.75417222  F       0.00566478      -0.00760286       0.02020208
Ti       0.13285239       6.07928445      17.78531303  F       0.00482566      -0.01314840       0.01949045
Ti       3.80932735       8.28939061      18.55946683  F      -0.00238793      -0.00550921       0.00128451
Ti       1.27701540       3.41110325      18.54073638  F       0.00486705      -0.01013016      -0.00398287
Ti       5.06800284       0.92044499      19.13808082  F       0.00641975      -0.01255707      -0.00527741
Ti       2.55354737       5.78925628      19.12111233  F      -0.00276834      -0.01427010       0.01780322
Ti       3.82612027       3.44126501      19.78230885  F       0.00798388      -0.01141932      -0.00127828
Ti       1.26071608       8.31090411      19.79579171  F       0.00441848      -0.00243702      -0.01645989
Ti       2.33414526       1.26511883      20.52516861  F      -0.01483689       0.01187200       0.00966165
Ti       4.88412032       6.14207194      20.56703443  F      -0.00656755       0.01362526      -0.02928513
Ti       1.49874307       3.97074658      21.27319936  F       0.00871875       0.01986443      -0.03518640
Ti       4.01560044       8.86037016      21.30656179  F       0.02493823       0.01550278      -0.01904383
Ti       4.89928484       1.80066781      21.94033294  F       0.01145924       0.02024346      -0.00662233
Ti       2.32565211       6.65400379      21.91394177  F       0.01282310       0.00180142       0.00141786
Ti       1.48766483       9.29462355      22.67710243  F       0.01239730       0.01675576       0.01677724
Ti       4.00842528       4.41248927      22.66817770  F      -0.00781060      -0.00184881       0.00580146
Ti       4.90243987       7.08892917      23.35308414  F      -0.01500112       0.02353099       0.01277723
Ti       2.39758690       2.19943219      23.32979556  F      -0.02234479      -0.00992817      -0.00430836
Ti       1.48091204       4.86587010      24.01527655  F       0.00963090       0.02213841       0.04069398
Al       4.05238712       9.73750571      24.02090718  F      -0.01219255       0.00024238       0.00272141
Ti       2.40933685       7.52515958      24.74093800  F       0.02988870       0.01919601       0.05788182
Ti       4.89601785       2.64307399      24.71653862  F      -0.01118056      -0.02582043      -0.01364694
Ti       4.04209764       5.31235571      25.42833418  F       0.01484344       0.05605567       0.09000085
Ti       1.50734308       0.43299705      25.41519605  F       0.02715217      -0.06819489       0.11093958
Ti       4.91085160       7.97582322      26.09577418  F      -0.04342696      -0.00596458       0.20981642
Ti       2.32787590       3.12451296      26.12990268  F      -0.06579714      -0.06928554       0.06636290
Ti       1.43923505       5.74113576      26.80255197  F       0.05694002       0.02823480       0.15235670
Ti       3.96162391       0.85800810      26.76972579  F       0.06905693       0.00314997       0.41876613
Ti       2.30317504       8.35327861      27.55586861  F       0.15380045       0.40268966       0.13995949
Ti       4.85807093       3.49761500      27.53319289  F      -0.08489460       0.24474652       0.51372084
Ti       1.49133383       1.32819849      28.16137172  F      -0.20219087       0.36376091       0.24370874
Ti       4.04380237       6.21362456      28.15876707  F      -0.10672315       0.11954789       0.53861708
Ti       4.88730588       8.93800967      28.90273764  F      -0.91042579      -0.37772802      -0.65359623
Ti       2.36511549       4.06307253      28.91962952  F       0.27683535      -0.26575234      -0.04120874
Ti       3.80762261       1.87687568      29.67754260  F       0.69326908       0.16090929      -0.67231419
Ti       1.25969833       6.74891059      29.68424573  F       0.97682904      -0.65660586      -0.69492968
