52
Lattice="4.6568 0.0 0.0 0.0 7.770572 0.0 0.0 0.0 41.044546" Properties=species:S:1:pos:R:3:move_mask:L:1:forces:R:3 job_name=BondOrder-VacuumGB-CSL7-Al-Al-25-d-0.00 top_level=BondOrder-VacuumGB solute=Al energy=-388.16689766 stress_kbar_3x3="_JSON [[-20.15654606, -0.20448467, -2.98432993], [-0.20448473, -30.13344514, -0.46597155], [-2.98432991, -0.46597161, -16.95940306]]" pbc="T T T"
Ti       1.81855025       7.41609405       8.22253599  F       1.07275337      -0.15320401       0.80175052
Ti       4.63909485       5.62509376       8.88228602  F      -0.08066546      -0.06182329      -0.01855042
Ti       2.46571506       2.29328229       9.12641898  F      -0.58438302       0.32140021       0.66321713
Ti       4.57826307       0.65130603       9.58706192  F      -0.30018467      -0.38547497       0.23097231
Ti       2.37583416       5.02639450      10.33678160  F      -0.05767392       0.03130372      -0.39799544
Ti       0.04477048       3.35900070      10.52751560  F       0.01891555       0.27932521       0.07650080
Ti       2.32889362       0.03063937      11.14946361  F      -0.02516111       0.17471311      -0.49639967
Ti       0.06056634       6.12991674      11.60436031  F      -0.00696089      -0.03981866      -0.24910263
Ti       2.37042296       2.78139077      12.10760749  F       0.03265379      -0.08287233      -0.21274055
Ti       0.03836272       1.13368760      12.49900828  F      -0.04202653      -0.07713268       0.09749430
Ti       2.39180233       5.58726661      13.11640034  F       0.04897895       0.03044523      -0.04735866
Ti       0.05200249       3.89393465      13.45809619  F      -0.00380953       0.00205474      -0.03032884
Ti       2.38241422       0.57583824      14.06756665  F      -0.00171228      -0.01388376      -0.01104924
Ti       0.07659505       6.64529993      14.43208326  F       0.01767586       0.01392960      -0.03696980
Ti       2.38682421       3.33983847      15.02649038  F       0.02202350      -0.01072583      -0.02950909
Ti       0.08079082       1.69866258      15.42367845  F       0.01177036      -0.04162281      -0.01453121
Ti       2.41850908       6.08986721      15.94280987  F      -0.00382046       0.00013396      -0.00762870
Ti       4.65673480       4.42353021      16.42212808  F      -0.00903632       0.01799000      -0.00639853
Ti       2.44384207       1.11001844      16.95234152  F      -0.00782042       0.00108707      -0.00633759
Ti       0.14228387       7.19520777      17.20895202  F       0.00125394       0.00160454       0.01213676
Ti       2.23436524       3.79970092      17.96794777  F      -0.01155174      -0.00435408       0.00638351
Ti       0.16652251       2.05477235      18.44644509  F       0.00318359       0.00639630      -0.00117845
Ti       2.51010834       6.66145495      18.64280219  F       0.00160539      -0.00254582       0.01185774
Ti       4.12937083       4.72265061      19.37868986  F       0.00233658       0.00085129       0.01380149
Ti       2.70472066       1.54633606      20.04082048  F      -0.00055755      -0.01744642      -0.00150040
Al       0.37720546       7.46840554      20.04073839  F      -0.00432740       0.00360358       0.00026154
Ti       1.27989820       4.72287596      20.70295109  F      -0.00592391      -0.00343691      -0.01003857
Ti       2.89967294       6.66184348      21.43834622  F      -0.00360347       0.00657097      -0.00602172
Ti       0.58555535       2.05499770      21.63490855  F       0.00072395       0.01074918       0.00091669
Ti       3.17476409       3.80008945      22.11377527  F       0.01524141      -0.00235932       0.01265134
Ti       0.61005477       7.19564292      22.87252475  F       0.00144073       0.00278674      -0.00084528
Ti       2.96520809       1.11047690      23.12917629  F       0.00153665      -0.01527737      -0.00263545
Ti       0.75180776       4.42389543      23.65930765  F       0.00440377      -0.00371262      -0.00025302
Ti       2.99047588       6.09014695      24.13854377  F       0.00134985       0.00553957      -0.00378603
Ti       0.67102625       1.69894232      24.65767519  F      -0.01109719       0.00102430      -0.00268403
Ti       3.02204899       3.34018814      25.05494535  F       0.00038531      -0.01884690       0.00276154
Ti       0.67508698       6.64551750      25.64947560  F      -0.01349619      -0.02150109       0.00309759
Ti       3.02604452       0.57608690      26.01386908  F       0.01210389      -0.01190375      -0.02046279
Ti       0.69967489       3.89395796      26.62317536  F      -0.00258916       0.03608282       0.02475684
Ti       3.01672626       5.58744534      26.96511747  F      -0.03625024       0.00661214      -0.00962686
Ti       0.71326343       1.13374977      27.58238640  F       0.08301290       0.02778646      -0.01502981
Ti       3.03807304       2.78159281      27.97341779  F      -0.02707259      -0.01794373       0.01939368
Ti       0.69105515       6.13010323      28.47723959  F       0.02440457      -0.07884940       0.10132411
Ti       3.07953718       0.03088802      28.93147958  F       0.01223895       0.01125140       0.24144511
Ti       0.70704194       3.35922605      29.55334550  F      -0.03314087      -0.00123733       0.29345616
Ti       3.03270375       5.02673640      29.74428473  F       0.07297083       0.24958814       0.45378218
Ti       0.83125743       0.65122056      30.49379918  F      -0.18086204       0.13499812       0.08280486
Ti       2.94318608       2.29354649      30.95423690  F       0.36224099       0.16739353      -0.20253178
Ti       0.76995531       5.62482956      31.19902657  F      -0.10084129      -0.21874815       0.29097926
Ti       3.59121240       7.41624946      31.85853034  F      -1.30473009      -0.16600168      -0.10513213
Ti       0.37619493       2.83003455      32.56273161  F       0.32174224      -0.15595565      -1.25321077
Ti       2.70480914       4.59077623      32.56281370  F       0.71235145       0.06145669      -0.24190801
