52
Lattice="4.6568 0.0 0.0 0.0 7.770572 0.0 0.0 0.0 41.044546" Properties=species:S:1:pos:R:3:move_mask:L:1:forces:R:3 job_name=BondOrder-VacuumGB-CSL7-Al-Al-39-d-6.91 top_level=BondOrder-VacuumGB solute=Al energy=-387.07958713 stress_kbar_3x3="_JSON [[-21.96353167, -3.32864217, -0.32144747], [-3.32864213, -27.24057614, 1.3359124], [-0.32144749, 1.3359124, -22.17624469]]" pbc="T T T"
Ti       1.81647798       7.38905246       8.69635423  F       0.98513119       0.21004853       0.45518320
Ti       4.62826313       5.58662166       9.35446248  F      -0.11911767      -0.24769001       0.09255471
Ti       2.46124453       2.27677760       9.60951329  F      -0.56332748       0.35634197       0.16967429
Ti       4.56347307       0.61714660      10.07241368  F       0.00509464       0.21308956      -0.31088432
Ti       2.35490185       5.00509536      10.80924537  F      -0.18801527       0.14075299      -0.56883725
Ti       0.02595700       3.33146956      11.01356512  F       0.17995279       0.14813586      -0.48222425
Ti       2.31011740       0.01173356      11.64700560  F      -0.04812031       0.03038661      -0.37780047
Ti       0.02846236       6.10282853      12.07780915  F       0.03047703      -0.09809303      -0.22240439
Ti       2.34102458       2.76433437      12.59653012  F       0.05321122      -0.05094184      -0.08912997
Ti       0.00298501       1.11621936      12.99228164  F      -0.04378617      -0.01985050       0.10418375
Ti       2.34239834       5.56729624      13.60786774  F       0.04202734      -0.00725662      -0.04697419
Ti       0.00640776       3.87366899      13.94685464  F      -0.01368710      -0.01975614       0.01638387
Ti       2.33452369       0.56673113      14.57688842  F      -0.00844283      -0.00391701       0.02255064
Ti       0.01394712       6.64275895      14.90902089  F       0.01380583      -0.00204136      -0.01308546
Ti       2.33099384       3.32383109      15.53076367  F       0.02818458      -0.01203506      -0.01000305
Ti       0.01178170       1.67690498      15.92667936  F       0.00004110      -0.01369035       0.00527595
Ti       2.35704863       6.10561816      16.44047499  F       0.00633539       0.00316242      -0.02124531
Ti       4.63741840       4.43124639      16.87735314  F      -0.01616548      -0.00073259      -0.00509588
Ti       2.35267590       1.10325027      17.51198391  F       0.00249634       0.00035481      -0.00772315
Ti       0.02570554       7.20757075      17.70575521  F      -0.00206005       0.00230350       0.00378104
Ti       2.23771813       3.81252236      18.44784060  F      -0.01729907      -0.01762392       0.00487922
Ti       0.13239282       2.16251911      18.92239764  F       0.00132108      -0.00166971       0.00227935
Ti       2.29605852       6.60899582      19.16328808  F       0.00436790      -0.02118455       0.00400600
Ti       4.14419808       4.82233151      19.81606054  F       0.01512177      -0.01578951       0.01383119
Ti       2.70598731       1.61745233      20.52982520  F      -0.00058414      -0.00329065       0.00607548
Ti       0.38584848       7.63448597      20.54661242  F      -0.00045313      -0.00917632       0.00463143
Ti       1.26046537       4.80734207      21.21842954  F      -0.00844802      -0.00930886       0.00230903
Ti       3.11172498       6.58904099      21.92357484  F       0.00017640      -0.01564386      -0.00331852
Ti       0.62150584       2.15111968      22.14033109  F       0.00447632      -0.01342611      -0.00347325
Ti       3.16744360       3.79029076      22.57470552  F       0.00510170      -0.00720393      -0.00356144
Ti       0.71906580       7.20837889      23.39309273  F      -0.01204203      -0.00092247      -0.01896246
Ti       3.04821555       1.09297758      23.56104701  F       0.00313650      -0.00852611      -0.00830160
Ti       0.78101987       4.42394982      24.10427157  F       0.02011646       0.00828100      -0.00722211
Ti       3.05351964       6.06409999      24.64211930  F      -0.00766617      -0.00133511      -0.00106090
Ti       0.73722732       1.68779155      25.14926572  F       0.00274964      -0.02118427       0.02930114
Ti       3.06770891       3.33722756      25.51148383  F      -0.01893782       0.00035712      -0.00254862
Ti       0.73298963       6.63590531      26.17246520  F      -0.00705161       0.04515341       0.06323759
Ti       3.07806098       0.55847101      26.50008277  F       0.00214517       0.05585978       0.02762515
Ti       0.73973734       3.96052845      27.10154955  F       0.00396584       0.01631411       0.08031946
Al       3.06673564       5.56235416      27.41693584  F      -0.04570256      -0.01135538      -0.05074164
Ti       0.75513272       1.19756947      28.07217097  F       0.05473554      -0.01258928      -0.05867564
Ti       3.06889174       2.81502958      28.45798970  F      -0.02903271      -0.07919148       0.09307758
Ti       0.73410727       6.13667714      28.90348720  F      -0.01862470      -0.01070041       0.23196512
Ti       3.12417261       0.01049804      29.34734292  F       0.04411840       0.25240514       0.31643293
Ti       0.70014988       3.33436799      30.11159237  F      -0.00473976      -0.03255012       0.18336083
Ti       3.05775733       5.01396935      30.17923378  F      -0.06055796      -0.04244191       0.68756839
Ti       0.84857141       0.60382784      30.92841988  F       0.07214006      -0.32697618      -0.49647030
Ti       2.93697856       2.24797986      31.43679763  F       0.64971129       0.33705354      -0.88156932
Ti       0.78446124       5.62394371      31.65917698  F      -0.22726294       0.17749686       0.09360924
Ti       3.58618305       7.37586580      32.31404271  F      -1.26226072      -0.79516263      -0.08119311
Ti       0.37533342       2.78557911       8.00224991  F      -0.32271118      -0.60503475       1.73803875
Ti       2.71571537       4.55738608      33.00736718  F       0.81595540       0.54079482      -0.67962872
