52
Lattice="4.6568 0.0 0.0 0.0 7.770572 0.0 0.0 0.0 41.044546" Properties=species:S:1:pos:R:3:move_mask:L:1:forces:R:3 job_name=BondOrder-VacuumGB-CSL7-Al-Al-38-d-6.58 top_level=BondOrder-VacuumGB solute=Al energy=-388.23985287 stress_kbar_3x3="_JSON [[-22.23763474, 0.16642194, -1.41010601], [0.16642197, -27.56241978, 0.29004279], [-1.41010602, 0.29004279, -17.27754549]]" pbc="T T T"
Ti       1.80686168       7.41082560       9.17595975  F       1.28030701      -0.17554658       0.17853082
Ti       4.62865430       5.60488250       9.84802314  F       0.09900411      -0.21259144      -0.24814131
Ti       2.46213398       2.28025881      10.08521958  F      -0.36104638       0.14953139       0.24135761
Ti       4.56585270       0.62821966      10.56790344  F       0.17319789       0.14198725      -0.11161696
Ti       2.35935841       5.01163041      11.31113808  F      -0.06850950       0.25373283      -0.42771338
Ti       0.03216917       3.33889046      11.49202139  F       0.00342540      -0.00537133      -0.28517793
Ti       2.30692750       0.01209878      12.13133124  F      -0.00394332       0.00770963      -0.23853451
Ti       0.03171281       6.10425831      12.57120564  F      -0.02561006      -0.05892773      -0.07941183
Ti       2.34305961       2.76263261      13.07794160  F       0.02212349      -0.01124716      -0.00480940
Ti       0.00353451       1.11874479      13.47656623  F      -0.07951488       0.02710812       0.00830387
Ti       2.34786542       5.56693103      14.09933513  F       0.02235374       0.00568477       0.00300417
Ti       0.01008197       3.87248787      14.42916910  F      -0.00489603       0.04059423      -0.03682066
Ti       2.33737365       0.56753927      15.06080362  F      -0.01070111      -0.00641547       0.01975921
Ti       0.01835711       6.64380798      15.39227937  F       0.01840502      -0.02461708      -0.01122567
Ti       2.33308474       3.32188068      16.01599229  F       0.00608807      -0.00369295      -0.00987802
Ti       0.01458044       1.67674180      16.40796771  F       0.00516026       0.00390853      -0.00339921
Ti       2.35741652       6.10906829      16.92016260  F       0.00041350       0.00485803      -0.01153711
Ti       4.63684096       4.43144065      17.35876462  F      -0.00346180       0.00228912       0.00334617
Ti       2.35516729       1.11026710      17.99799238  F       0.00040854      -0.00223146      -0.00769340
Ti       0.03271868       7.20336687      18.18014807  F      -0.00402307      -0.00157724       0.01031483
Ti       2.23704755       3.82709996      18.93651697  F      -0.00166073       0.00404520      -0.01403926
Ti       0.13081883       2.17417496      19.38993606  F       0.01048940      -0.00131677       0.00526412
Ti       2.30701597       6.62013882      19.64346823  F      -0.00421335      -0.00060116      -0.00022775
Ti       4.15118794       4.81981384      20.30683018  F       0.00353996      -0.00464500       0.00894287
Ti       2.70538659       1.66576198      21.00856878  F       0.00459496      -0.01371023       0.00360994
Ti       0.38091227       7.66333034      21.00113972  F       0.00473493      -0.00915588      -0.00058760
Ti       1.26123840       4.82990781      21.73485202  F       0.01556856      -0.00361717       0.00253016
Ti       3.11372741       6.64291436      22.36156120  F       0.01005001      -0.01981024      -0.01551577
Ti       0.63123390       2.17016535      22.62716045  F      -0.01226935       0.00194088      -0.00081541
Ti       3.18526051       3.82930680      23.10483688  F      -0.00671940       0.00602956      -0.02764548
Ti       0.72600443       7.21011172      23.82713880  F      -0.00362383      -0.00457296      -0.02310679
Ti       3.07177430       1.12871444      24.03113019  F       0.00015306      -0.00951510      -0.00107405
Ti       0.76859553       4.40476428      24.68735039  F       0.00706846       0.01851520      -0.00598407
Ti       3.04791751       6.11213767      25.03848649  F      -0.02228649      -0.01263759      -0.00411319
Ti       0.73873147       1.64042214      25.64106147  F       0.01088310      -0.00188820       0.02581241
Ti       3.05606691       3.30368977      26.05183528  F      -0.00059290      -0.01438276      -0.01006209
Ti       0.74189344       6.54261959      26.60257100  F      -0.00991936      -0.00101496       0.03881980
Ti       3.06633981       0.45406560      26.93302064  F       0.02695084       0.02506124       0.03311001
Al       0.73513642       3.83438098      27.57774837  F       0.01360712      -0.00617496      -0.00581207
Ti       3.06226977       5.47203680      27.91550394  F      -0.01907297       0.04585234       0.08605010
Ti       0.75573810       1.11213981      28.49423204  F       0.01903722      -0.09570669      -0.04337802
Ti       3.06794175       2.79740592      28.90672972  F      -0.00739467      -0.08267249       0.16529032
Ti       0.72674486       6.07638527      29.41691343  F      -0.02916338      -0.07852521       0.19920481
Ti       3.09204535       0.01311673      29.84020583  F       0.01156306       0.15132387       0.44073877
Ti       0.73543445       3.38267763      30.48119851  F      -0.06646319       0.25429544      -0.03962534
Ti       3.06315456       5.06040629      30.75993202  F      -0.02076671       0.03764617       0.38476238
Ti       0.82988833       0.63850013      31.40273065  F       0.33352676      -0.32444634      -0.25085077
Ti       2.94126748       2.30119273      31.88385482  F       0.58875102       0.25247442      -0.62230103
Ti       0.77202293       5.61755630      32.16923755  F       0.16898815      -0.02424387       0.04027506
Ti       3.58837175       7.43060170      32.81593542  F      -1.04367767      -0.12977095      -0.84703839
Ti       0.36534924       2.80122127       8.46740775  F      -0.32869569      -0.16760467       1.30917133
Ti       2.68060775       4.57793148       8.49925832  F      -0.72216782       0.07364344       0.17993775
