52
Lattice="5.088765 0.0 0.0 0.0 5.495746 0.0 0.0 0.0 48.722931" Properties=species:S:1:pos:R:3:move_mask:L:1:forces:R:3 job_name=BondOrder-VacuumGB-C1-V-V-25-d-0.00 top_level=BondOrder-VacuumGB solute=V energy=-394.68241107 stress_kbar_3x3="_JSON [[-37.6965168, -0.39931863, -0.30475111], [-0.39931865, -26.91654889, 0.0172773], [-0.30475113, 0.01727733, -24.34916593]]" pbc="T T T"
Ti       2.61966060       0.79522345       7.99962315  F       0.10016815      -0.02880919       1.69171838
Ti       0.02897543       1.59872350       9.37882316  F      -0.06066531      -0.57300545       0.33586302
Ti       0.81944383       4.34636568       9.37921294  F      -0.07559307       0.58490077      -0.02440799
Ti       2.56952609       2.35497113      10.59148819  F      -0.20010090      -0.34031418      -0.66777328
Ti       3.36772432       5.10314639      10.59061117  F       0.24882987       0.40687335      -0.52907035
Ti       0.81196334       0.38583984      11.83358187  F      -0.04618728      -0.03751937      -0.22283960
Ti       0.03544325       3.13388321      11.83314336  F       0.03032758      -0.02249185      -0.35477517
Ti       3.37317948       1.18267904      13.07669873  F      -0.05845896      -0.03439615       0.02536157
Ti       2.56534821       3.93058502      13.07523704  F       0.07811949       0.02459783       0.02817835
Ti       0.01142937       4.70220424      14.32088749  F      -0.03902586       0.03474652       0.05880850
Ti       0.83657770       1.95588104      14.31728200  F       0.02865965      -0.01551930       0.01900292
Ti       3.36957154       2.73794219      15.56522243  F      -0.00622768       0.00281723      -0.00292366
Ti       2.56368927       5.48629881      15.55888845  F       0.00836206       0.01488170      -0.02252025
Ti       0.83504598       3.54253039      16.82159193  F       0.00409032      -0.00970884       0.01827901
Ti       0.02503164       0.79410782      16.81496561  F       0.02177854      -0.00071233       0.02437985
Ti       2.55478394       1.57042041      18.06222392  F       0.00125496       0.00366355       0.01869068
Ti       3.38550956       4.32442666      18.04697364  F      -0.01414334      -0.00300021       0.02173472
Ti       0.81995270       5.08898935      19.32502485  F      -0.00752048      -0.00411080       0.00403653
Ti       0.01791245       2.34121527      19.30261230  F       0.00707918       0.00732932       0.00569771
Ti       3.36342940       0.40989472      20.56263602  F      -0.00099870       0.00051100       0.00269836
Ti       2.60279134       3.15827333      20.53330481  F       0.00522455       0.00126592       0.01157387
Ti       0.04801759       3.91391642      21.85355007  F      -0.00826592      -0.01094259       0.00181835
Ti       0.81878738       1.18369576      21.82533950  F       0.00188644      -0.00708120       0.00937678
Ti       2.54818381       4.68964097      22.98250911  F      -0.01160451       0.00232188       0.00772470
Ti       3.32970107       1.95487532      23.01213265  F       0.00163694       0.00138636       0.01522152
V        0.75054704       2.66377160      24.36146550  F      -0.01589974       0.00342803      -0.00473633
Ti       0.11669556       5.45322541      24.36190401  F      -0.00601349       0.00140401       0.00032251
Ti       3.32928379       1.95475991      25.71074963  F       0.00402617       0.00165272      -0.01516700
Ti       2.54789884       4.68949258      25.74066551  F      -0.01000330       0.00349553      -0.01373100
Ti       0.04817025       3.91372407      26.86928348  F      -0.00629316      -0.01289691      -0.00216119
Ti       0.81905708       1.18377819      26.89793256  F       0.00318447      -0.00491407      -0.00847555
Ti       3.36359224       0.41040582      28.15990520  F      -0.00188565       0.00048334      -0.00138831
Ti       2.60290330       3.15864704      28.18962619  F       0.00359629      -0.00049109      -0.00435848
Ti       0.81993235       5.08961037      29.39737020  F      -0.00403275      -0.00272998       0.00256012
Ti       0.01800405       2.34162196      29.41988020  F       0.01047198       0.00460992      -0.00301560
Ti       2.55503329       1.57101395      30.66041474  F       0.00683432      -0.00196404      -0.02342930
Ti       3.38564695       4.32510814      30.67571374  F      -0.00940863       0.00220878      -0.01654314
Ti       0.02528607       0.79462991      31.90772178  F       0.01027244      -0.00517062      -0.02550755
Ti       0.83503580       3.54306348      31.90075440  F      -0.00646399      -0.00498921      -0.01978637
Ti       3.36932219       2.73838185      33.15765985  F      -0.00038154       0.00837017       0.00463962
Ti       2.56393354       5.48673847      33.16399383  F       0.01310604       0.00783431       0.01383665
Ti       0.83639959       1.95595249      34.40569773  F       0.03534851       0.03422220      -0.05128738
Ti       0.01182629       4.70221524      34.40204351  F      -0.03357255      -0.01484336      -0.02817404
Ti       2.56543472       3.93049159      35.64803502  F       0.06581147      -0.03606516      -0.03124661
Ti       3.37318966       1.18266256      35.64632972  F      -0.07113095       0.02677620      -0.02185958
Ti       0.81179033       0.38605967      36.88973892  F      -0.02989692      -0.02260074       0.34934703
Ti       0.03553485       3.13406457      36.89022615  F       0.04724791      -0.03803806       0.22985032
Ti       2.56988739       2.35461390      38.13158898  F      -0.25292564       0.40490211       0.52688306
Ti       3.36742917       5.10278917      38.13256344  F       0.19832380      -0.33858404       0.67512158
Ti       0.82003412       4.34598098      39.34420529  F       0.05805865      -0.56775859      -0.34046478
Ti       0.02858868       1.59836628      39.34469252  F       0.08155870       0.58380118       0.02219359
Ti       3.31604282       3.54349215      40.72238212  F      -0.09855814      -0.02982659      -1.68927682
