52
Lattice="4.6568 0.0 0.0 0.0 7.770572 0.0 0.0 0.0 41.044546" Properties=species:S:1:pos:R:3:move_mask:L:1:forces:R:3 job_name=BondOrder-VacuumGB-CSL7-Al-Al-27-d-1.36 top_level=BondOrder-VacuumGB solute=Al energy=-386.86989539 stress_kbar_3x3="_JSON [[-20.84137645, -1.70254973, 0.40737895], [-1.70254973, -25.4107601, -1.44798822], [0.40737894, -1.44798823, -23.81951229]]" pbc="T T T"
Ti       1.81884829       7.40096474       8.70485045  F       0.98941024       0.21476969       0.44915500
Ti       4.63600273       5.60027455       9.36320497  F      -0.12415760      -0.26865597       0.13610441
Ti       2.45956809       2.28324271       9.62437141  F      -0.55467151       0.37973926       0.15633245
Ti       4.56688651       0.62543780      10.08526062  F      -0.01463976       0.20686987      -0.31742170
Ti       2.36108142       5.01646371      10.83374896  F      -0.20531913       0.14066672      -0.59987089
Ti       0.02872314       3.34321090      11.02362103  F       0.17601246       0.14953175      -0.46504159
Ti       2.31045269       0.01949637      11.66137119  F      -0.04656608       0.04270818      -0.36232311
Ti       0.02817830       6.11180354      12.09816725  F       0.03323410      -0.09198102      -0.23833258
Ti       2.34050768       2.77630105      12.61766806  F       0.05263053      -0.04708027      -0.08996552
Ti       4.65665098       1.12641435      13.00549798  F      -0.04125287      -0.00603634       0.09933577
Ti       2.34167654       5.57966700      13.63220715  F       0.04116670       0.00437918      -0.03899053
Ti       0.00058676       3.88426806      13.96507842  F      -0.02216322      -0.01218850       0.01482755
Ti       2.33200902       0.58019753      14.59765696  F      -0.01751757       0.01620001       0.02161573
Ti       0.00570458       6.65944237      14.92876332  F       0.00997198       0.01496687      -0.01705601
Ti       2.31997585       3.34613263      15.56269633  F       0.01809900      -0.00199742      -0.00558129
Ti       0.01178170       1.69249275      15.94297405  F      -0.00157780      -0.01203741       0.00536967
Ti       2.33380189       6.13985530      16.45935548  F       0.01007515       0.00297617      -0.01576417
Ti       4.61514027       4.45553720      16.89492020  F      -0.01842767       0.01617464      -0.00883397
Ti       2.33767635       1.14286465      17.55947245  F      -0.00924555       0.00821965      -0.01983796
Ti       0.00310609       7.24926764      17.74454230  F      -0.01019169       0.00329302       0.01068897
Ti       2.21153295       3.87421293      18.50743728  F      -0.01386957       0.00054204      -0.00045908
Ti       0.12460200       2.24327089      18.92564016  F       0.00742332       0.00168454       0.00575047
Ti       2.29878275       6.62677488      19.15060532  F       0.01345321       0.00523997      -0.00619918
Ti       4.23307777       4.94396427      19.77518017  F       0.00006482      -0.00861011      -0.00480698
Ti       2.79564003       1.68442689      20.54373930  F      -0.00457958      -0.00011901       0.00152330
Ti       0.57111927       7.75232670      20.56253770  F       0.01241106      -0.00743796       0.00672398
Ti       1.12730883       4.83035851      21.36327575  F      -0.00288092      -0.01274428       0.00338588
Al       3.07947664       6.67035225      21.76682572  F       0.00269002       0.00427616       0.00023129
Ti       0.63500590       2.20214125      22.13836095  F      -0.00558102       0.00346046      -0.00378857
Ti       3.20861902       3.89268358      22.56588095  F       0.00744035       0.01867124      -0.01789259
Ti       0.74584706       7.10034462      23.29836191  F      -0.00153193      -0.00484071       0.00005901
Ti       3.02378597       1.10750077      23.44920062  F       0.00854554      -0.01508742       0.00375491
Ti       0.77730374       4.33984892      24.24259169  F       0.01070862      -0.01608215       0.01368865
Ti       3.06254918       6.03977033      24.52809756  F       0.00260493       0.00740479       0.02424237
Ti       0.70786154       1.60464643      25.11138160  F       0.00693559      -0.02679363       0.01793861
Ti       3.06832827       3.25349964      25.50758460  F      -0.01047718      -0.00839722       0.01203316
Ti       0.73407001       6.57749392      26.09435743  F      -0.01249513       0.01897112       0.04343476
Ti       3.05782252       0.50038598      26.43121002  F       0.01585104       0.01975262      -0.00332993
Ti       0.73658468       3.80034588      27.11509425  F       0.00106412      -0.00583909       0.06856154
Ti       3.05058120       5.51120826      27.38249946  F      -0.01713239       0.03311068      -0.06164624
Ti       0.74166525       1.07127437      28.03408163  F       0.05425632      -0.03577827      -0.04386678
Ti       3.06160385       2.71412093      28.44066890  F      -0.01358931      -0.07540368       0.10468374
Ti       0.71779450       6.06896437      28.92392739  F      -0.02616886       0.02997243       0.23225118
Ti       3.09719111       7.73988601      29.37824947  F       0.05943531       0.22927126       0.33749055
Ti       0.72287972       3.31086978      30.02273093  F       0.00270795      -0.03975482       0.09418012
Ti       3.04541215       4.97906394      30.18937179  F      -0.06645510      -0.04504573       0.73718534
Ti       0.83841493       0.61117103      30.94504292  F       0.03065452      -0.35769108      -0.49363303
Ti       2.94416866       2.26331119      31.42895812  F       0.65083057       0.34336637      -0.89947615
Ti       0.77522215       5.59467974      31.66324039  F      -0.22953380       0.01428090       0.05827666
Ti       3.59304718       7.38708650      32.32996799  F      -1.23520955      -0.83071862      -0.07759819
Ti       0.37756869       2.79916207       7.99941784  F      -0.31572522      -0.61135465       1.77900359
Ti       2.70446454       4.57273296      33.03724761  F       0.80328257       0.61117578      -0.64611259
