52
Lattice="5.088765 0.0 0.0 0.0 5.495746 0.0 0.0 0.0 48.722931" Properties=species:S:1:pos:R:3:move_mask:L:1:forces:R:3 job_name=BondOrder-VacuumGB-C1-Al-Al-34-d-5.07 top_level=BondOrder-VacuumGB solute=Al energy=-391.0519833 stress_kbar_3x3="_JSON [[-34.63983721, 0.18066654, 0.72016144], [0.18066657, -26.03164981, -0.44035267], [0.72016147, -0.44035271, -22.41406819]]" pbc="T T T"
Ti       2.60833810       0.79154680       8.00814966  F       0.11320144      -0.02049978       1.64915819
Ti       0.02252287       1.59987211       9.37326874  F      -0.06280336      -0.58734348       0.34139242
Ti       0.80347528       4.34395854       9.36649626  F      -0.04718314       0.59424247       0.02593868
Ti       2.57268621       2.36118682      10.58198722  F      -0.22436351      -0.33429894      -0.65471208
Ti       3.36645722       5.10664169      10.58851609  F       0.23350965       0.38877431      -0.50417601
Ti       0.81272157       0.38709837      11.82188836  F      -0.04912141      -0.03460611      -0.23339200
Ti       0.03572313       3.13487244      11.83514100  F       0.01930009      -0.01854510      -0.36928335
Ti       3.36426396       1.18267355      13.07197260  F      -0.05963803      -0.03712196       0.02991592
Ti       2.55917045       3.93272286      13.07226494  F       0.06554290       0.02160102       0.02235476
Ti       0.01426890       4.70734277      14.30831698  F      -0.04322971       0.03265118       0.04556492
Ti       0.83637415       1.95369923      14.32210557  F       0.02938185      -0.01235528       0.01864681
Ti       3.37122539       2.74014049      15.55002087  F      -0.00774557       0.01201308      -0.01239452
Ti       2.56252395       5.48692533      15.57092301  F      -0.00145367       0.01262750      -0.01813721
Ti       0.81065553       3.53894167      16.80639037  F      -0.00461317      -0.00501849       0.00384130
Ti       5.08665825       0.79497065      16.81184734  F       0.00385862      -0.00571685       0.00785272
Ti       2.54714570       1.58033474      18.04137051  F      -0.00160591       0.00023802      -0.00303838
Ti       3.37206504       4.31061036      18.06777833  F      -0.01049133      -0.00191180       0.01511412
Ti       0.81992217       5.09879376      19.27245280  F      -0.00614979       0.00136923      -0.00858899
Ti       0.02351009       2.34607901      19.32210147  F      -0.00251834       0.00171672      -0.00555890
Ti       3.31619040       0.40287665      20.52716572  F      -0.00994351       0.00424210      -0.00849481
Ti       2.53545172       3.15228297      20.56814171  F      -0.00584069       0.00224576       0.00110420
Ti       5.07343255       3.92684241      21.74231562  F      -0.00912451       0.00339236      -0.01348608
Ti       0.79696675       1.17110500      21.82105188  F      -0.00283274      -0.01058767       0.00905115
Ti       2.66115948       4.68766250      23.03649411  F       0.00921429      -0.00245042       0.00016775
Ti       3.38726009       1.93871233      22.96180186  F       0.00269501      -0.00227806      -0.00467933
Ti       0.71184189       2.79899443      24.21943816  F       0.00435804       0.01386444       0.00640961
Ti       0.08388829       0.04636211      24.55543149  F       0.01159205       0.01363762       0.00642899
Ti       3.18100736       1.89507611      25.68614455  F      -0.01742503       0.00171640      -0.00109140
Ti       2.55727234       4.61680585      25.78441870  F       0.00182093       0.00800524       0.00279803
Ti       0.03207449       3.84195512      26.95216119  F       0.00240276      -0.01478024      -0.00265243
Ti       0.96894157       1.10212789      27.07562509  F       0.00772198       0.00163960       0.00284160
Ti       3.51208241       0.48817063      28.05583302  F       0.01120634       0.00593409      -0.01169530
Ti       2.64563875       3.21967180      28.26202846  F       0.01266364      -0.00458396       0.01196715
Ti       0.72652807       5.09214941      29.43537409  F       0.01280650       0.00252282      -0.00776424
Al       0.08634108       2.34761782      29.44365699  F      -0.00339180      -0.00146898      -0.00326739
Ti       2.62817919       1.47777312      30.60194723  F      -0.00172020      -0.00131507      -0.00517491
Ti       3.51206714       4.23080113      30.78836116  F       0.00181719      -0.00774102      -0.00059603
Ti       0.00857457       0.82735159      31.91853827  F       0.00563094       0.00577870      -0.00971325
Ti       0.94353336       3.56965740      31.84009435  F      -0.00724731      -0.00580813       0.00649693
Ti       3.30798222       2.75258285      33.16277576  F       0.01355400      -0.00165675       0.02341975
Ti       2.53879504       0.02335692      33.15653922  F      -0.00004972      -0.01491446       0.01546244
Ti       0.81557128       1.94601618      34.43873187  F       0.04283847       0.03381752      -0.05093287
Ti       0.00992309       4.68077633      34.33982432  F      -0.03320013      -0.02419550      -0.03100329
Ti       2.55257032       3.95016087      35.64657333  F       0.06857165      -0.02693181      -0.02913080
Ti       3.38420174       1.18046975      35.63414898  F      -0.07713021       0.03055665      -0.00820281
Ti       0.78017892       0.39026941      36.85802029  F      -0.01987566      -0.02982991       0.38138227
Ti       0.00690037       3.15107390      36.88116368  F       0.05153523      -0.03102421       0.22134188
Ti       2.54885552       2.35396541      38.10713007  F      -0.23960928       0.36544572       0.49439372
Ti       3.33563457       5.09929937      38.13996933  F       0.26119530      -0.29260712       0.66916198
Ti       0.81782051       4.34562925      39.33105010  F       0.02841365      -0.56754835      -0.34127838
Ti       0.02623258       1.60232871      39.33850471  F       0.04366975       0.58178645      -0.03335598
Ti       3.30288837       3.54056292      40.69275857  F      -0.11019454      -0.04267957      -1.64040658
