64
Lattice="5.871999 0.0 0.0 0.0 6.890708 0.0 0.0 0.0 43.401158" Properties=species:S:1:pos:R:3:move_mask:L:1:forces:R:3 job_name=BondOrder-VacuumGB-T1m-Al-Al-39-d-2.03 top_level=BondOrder-VacuumGB solute=Al energy=-482.04484756 stress_kbar_3x3="_JSON [[-17.73407932, -0.00030031, -0.00014437], [-0.00030032, -28.39420927, -0.35620166], [-0.00014438, -0.35620165, -15.65970445]]" pbc="T T T"
Ti       2.93710931       0.10419440      34.54285145  F       0.00337456      -0.30155750      -0.17836875
Ti       2.93625787       2.94251147      34.54254764  F       0.00503871       0.13852125      -0.97533199
Ti       5.87097140       0.10418750      34.54285145  F      -0.00341712      -0.30154023      -0.17841546
Ti       5.87180522       2.94250458      34.54254764  F      -0.00499463       0.13855489      -0.97537371
Ti       4.40401687       5.03036844       8.55319641  F      -0.00011478      -0.01424071       0.92328741
Ti       1.46804673       5.03075432       8.55510606  F      -0.00006424      -0.01198731       0.91513879
Ti       4.40403448       1.31967394       9.16719259  F      -0.00006435      -0.26139742       0.14448783
Ti       1.46804673       1.32168603       9.16871163  F       0.00011110      -0.26927257       0.14993355
Ti       2.93645752       3.41248532      10.34766069  F       0.00320438       0.13743194      -0.25570559
Ti       5.87160558       3.41245776      10.34766069  F      -0.00315041       0.13753443      -0.25571266
Ti       2.93608758       6.23026120      10.75940748  F      -0.00250501       0.14747289      -0.56887456
Ti       5.87199313       6.23027498      10.75940748  F       0.00252191       0.14720964      -0.56878849
Ti       1.46801737       1.49320264      11.97880641  F       0.00010302      -0.02738332      -0.01788553
Ti       4.40403448       1.49619321      11.97589853  F      -0.00017721      -0.03036934      -0.02172183
Ti       1.46802911       4.44264617      12.58025966  F      -0.00003453      -0.00300950       0.04623758
Ti       4.40402274       4.44164013      12.57756879  F       0.00005512       0.00546702       0.04765095
Ti       2.93947572       6.59902433      13.74067642  F      -0.00247390       0.04617491      -0.11471311
Ti       5.86854039       6.59902433      13.74071982  F       0.00242447       0.04628671      -0.11494904
Ti       2.93753209       2.52182686      14.23935572  F       0.00095611       0.02168137       0.03306950
Ti       5.87049577       2.52182686      14.23935572  F      -0.00090300       0.02154997       0.03310915
Ti       4.40401687       4.68934041      15.40289737  F      -0.00006236      -0.02863847      -0.00796498
Ti       1.46798801       4.68400011      15.40354839  F       0.00009896      -0.02482366      -0.00893525
Ti       4.40400512       0.73206193      16.01593873  F       0.00005087       0.00463218      -0.02139887
Ti       1.46800562       0.73458393      15.98824879  F      -0.00003619       0.00360041      -0.02377577
Ti       5.86868719       2.90291058      17.21836781  F      -0.00167610      -0.00883791      -0.00415697
Ti       2.93929956       2.90290368      17.21836781  F       0.00169426      -0.00875749      -0.00418730
Ti       5.86168777       5.70598857      17.63905523  F      -0.00057597       0.02174475       0.02514081
Ti       2.94631660       5.70598168      17.63905523  F       0.00059784       0.02173325       0.02508322
Ti       1.46801149       0.94370313      18.76370944  F      -0.00003112      -0.00639700      -0.00668200
Ti       4.40396989       0.93373917      18.82138958  F       0.00006907      -0.01091442      -0.00623878
Ti       1.46798213       4.08073929      19.42657533  F       0.00004804       0.00040347      -0.00543759
Ti       4.40399925       4.08674110      19.43308550  F       0.00000913      -0.00019212      -0.00279111
Ti       2.88826015       2.09407927      20.83984723  F      -0.00027062       0.02013803       0.00215208
Ti       0.04773348       2.09408616      20.83984723  F       0.00023563       0.01998606       0.00207849
Ti       2.92594664       6.20403517      20.84501197  F       0.00442729      -0.01151765       0.00675632
Ti       0.01000589       6.20401449      20.84501197  F      -0.00445069      -0.01134491       0.00678486
Ti       4.40399925       4.08590732      22.24734679  F      -0.00002811      -0.00212006       0.00058363
Ti       1.46797626       3.97644154      22.27603495  F       0.00006273      -0.00242005       0.00661676
Ti       4.40399338       0.95563784      22.92318962  F      -0.00002795      -0.01082440       0.00401815
Al       1.46798213       0.94129828      22.87787881  F      -0.00019142      -0.00208006       0.00629371
Ti       2.93125492       5.71935655      24.05361618  F       0.00024911      -0.00874563       0.00490522
Ti       0.00475632       5.71935655      24.05361618  F      -0.00017437      -0.00884337       0.00495003
Ti       2.95119036       2.86930459      24.47825311  F       0.00402923      -0.00032274       0.00050450
Ti       5.85680227       2.86929770      24.47820971  F      -0.00397556      -0.00034855       0.00085797
Ti       4.40400512       0.71551734      25.75841367  F      -0.00004288      -0.00323787      -0.01176043
Ti       1.46802911       0.70010971      25.67339080  F      -0.00010384      -0.00086486      -0.00422026
Ti       4.40401099       4.65945541      26.27688390  F       0.00001801       0.01951458      -0.00981622
Ti       1.46801737       4.70381778      26.24567847  F       0.00001967       0.01005899      -0.01177306
Ti       0.02024078       2.51457784      27.45032101  F       0.00246309      -0.01865894       0.01941091
Ti       2.91579982       2.51453649      27.45027761  F      -0.00244057      -0.01832212       0.01974262
Ti       0.01518499       6.57449341      27.95099677  F      -0.00465446       0.00382187      -0.01534383
Ti       2.92088497       6.57452097      27.95099677  F       0.00448202       0.00350006      -0.01512182
Ti       1.46801737       4.43102154      29.10594498  F       0.00017628      -0.02528822      -0.02106603
Ti       4.40404623       4.43044272      29.11675187  F      -0.00011654      -0.03032840      -0.01632067
Ti       1.46802324       1.49085980      29.71091373  F       0.00009205       0.01927413      -0.00201318
Ti       4.40403448       1.48568488      29.69311925  F      -0.00008058       0.01316939       0.00243332
Ti       2.93617566       6.22972373      30.92488752  F       0.00552459      -0.00303529       0.05429969
Ti       5.87187569       6.22970305      30.92488752  F      -0.00545619      -0.00298581       0.05430342
Ti       2.93614630       3.40946030      31.34071401  F      -0.00340609       0.00598097      -0.03901429
Ti       5.87191679       3.40947408      31.34067061  F       0.00347598       0.00577806      -0.03881072
Ti       4.40401687       1.31708304      32.51076583  F       0.00009455      -0.06232052       0.69234324
Ti       1.46803498       1.32184452      32.52009708  F      -0.00007680      -0.06001499       0.69089318
Ti       4.40403448       5.03179481      33.12949274  F       0.00004792       0.21309681       0.28542780
Ti       1.46802911       5.02921769      33.13192320  F       0.00002188       0.21862535       0.29417520
