64
Lattice="5.872 0.0 0.0 0.0 6.890708 0.0 0.0 0.0 43.394398" Properties=species:S:1:pos:R:3:move_mask:L:1:forces:R:3 job_name=BondOrder-VacuumGB-T1g-V-V-42-d-4.72 top_level=BondOrder-VacuumGB solute=V energy=-484.85415597 stress_kbar_3x3="_JSON [[-18.74034288, -0.00091496, -0.00190582], [-0.00091494, -21.94123188, -1.68137506], [-0.00190582, -1.68137504, -23.02148054]]" pbc="T T T"
Ti       4.40136934       5.09831082       8.20896166  F       0.00947798      -0.09376745       1.16304351
Ti       1.47064827       5.09831771       8.20900506  F      -0.00933644      -0.09350311       1.16256250
Ti       0.00001762       3.00071039       9.38139151  F      -0.00159128       0.33413097      -0.16161458
Ti       2.93605285       3.00009712       9.37939537  F       0.00160165       0.32878596      -0.17429803
Ti       0.00005872       6.74600313       9.99859003  F      -0.00145259      -0.46062988      -0.31268715
Ti       2.93601174       6.74740195      10.00175782  F       0.00130341      -0.45935031      -0.32456821
Ti       4.40021843       1.81930540      11.43546534  F       0.00644036       0.09271142      -0.08709386
Ti       1.47184029       1.81930540      11.43546534  F      -0.00653056       0.09276218      -0.08713713
Ti       1.46897475       4.65304016      11.40304972  F      -0.00325024       0.34263214      -0.21714709
Ti       4.40313094       4.65305394      11.40304972  F       0.00327404       0.34215087      -0.21788069
Ti       0.00000000       6.74342601      12.83194046  F      -0.00007709      -0.12270621      -0.02638140
Ti       2.93604698       6.74403928      12.83432715  F       0.00014875      -0.12496038      -0.02679586
Ti       2.93601174       3.07107830      13.45577833  F       0.00020373      -0.08094521      -0.08817951
Ti       0.00001762       3.06787413      13.45204641  F      -0.00014588      -0.07324019      -0.08723930
Ti       4.40472813       5.15712990      14.64756207  F      -0.00007150      -0.01933326      -0.00043052
Ti       1.46727187       5.15712990      14.64756207  F       0.00012388      -0.01926943      -0.00025939
Ti       4.40354786       1.08716767      15.03694001  F       0.00052658       0.02158907       0.05121253
Ti       1.46846389       1.08716767      15.03698340  F      -0.00047502       0.02142290       0.05115820
Ti       2.93598238       3.24668111      16.27402750  F      -0.00016902       0.02409511      -0.01749273
Ti       5.87196477       3.24306349      16.27159742  F       0.00030879       0.02700185      -0.01315385
Ti       2.93600587       6.20526171      16.87907560  F      -0.00019443      -0.00443624      -0.02434709
Ti       0.00000587       6.20477936      16.87117782  F       0.00022074      -0.00382112      -0.02175775
Ti       4.40134586       1.47287505      18.03536272  F      -0.00054131       0.01679589       0.02679409
Ti       1.47067176       1.47289573      18.03536272  F       0.00058695       0.01672366       0.02690169
Ti       4.40244979       4.29767256      18.54316397  F      -0.00312892       0.00025253       0.00862801
Ti       1.46952085       4.29770013      18.54312058  F       0.00325880       0.00020003       0.00879216
Ti       2.93602936       6.46856945      19.72023702  F      -0.00001232       0.00236276       0.00563755
Ti       0.00001174       6.46761164      19.70804319  F      -0.00003701      -0.00084953       0.00768427
Ti       2.93604110       2.50187826      20.32407006  F      -0.00024228       0.00116168      -0.00879682
Ti       0.00001762       2.49977659      20.29994278  F      -0.00000021       0.00081455       0.00134040
Ti       1.46044274       4.67122473      21.50201100  F       0.00302508      -0.00768851      -0.00679214
Ti       4.41162773       4.67120406      21.50201100  F      -0.00285508      -0.00766709      -0.00662875
Ti       4.40528597       0.61640828      21.98325487  F       0.00095483       0.00880995      -0.00080075
Ti       1.46680211       0.61638072      21.98329827  F      -0.00095635       0.00867614      -0.00108320
Ti       0.00023488       2.74485152      23.13594027  F      -0.00019444      -0.00303800       0.01048416
Ti       2.93587082       2.73217950      23.17061239  F       0.00021624      -0.01227909       0.00066326
Ti       5.87193541       5.79004832      23.76229501  F      -0.00021602      -0.00014772       0.00325894
Ti       2.93617616       5.80793660      23.70800861  F       0.00016481      -0.00639193       0.00298397
Ti       4.46263192       3.90876789      25.27224648  F      -0.01077728      -0.01668534      -0.00019125
Ti       1.40949726       3.90932604      25.27237666  F       0.01070915      -0.01718429      -0.00057197
Ti       4.41739403       1.01356113      25.09762742  F       0.00297876       0.00835943      -0.00020663
Ti       1.45467643       1.01334063      25.09762742  F      -0.00300826       0.00845613      -0.00034577
V        5.87083147       5.89748135      26.55333590  F      -0.00088738      -0.00957201       0.02460576
Ti       2.93710394       5.87976534      26.50347573  F       0.00035574       0.00761848       0.02116259
Ti       2.93560070       2.52411458      27.12822488  F       0.00047009       0.00163015      -0.01406430
Ti       0.00045214       2.51762353      27.16810433  F      -0.00058421      -0.00878617      -0.01248563
Ti       4.42491019       0.46110551      28.30699031  F      -0.00273424       0.01523805      -0.00657904
Ti       1.44687842       0.46069896      28.30686013  F       0.00287872       0.01536679      -0.00613935
Ti       1.45252141       4.54245807      28.62915032  F      -0.00597694       0.05275478      -0.02189059
Ti       4.41953731       4.54248564      28.62941069  F       0.00592882       0.05302806      -0.02164093
Ti       2.93584733       2.41423535      29.91488294  F      -0.00040176      -0.10002482       0.06730535
Ti       0.00012918       2.40163913      29.93775179  F       0.00036915      -0.08937267       0.07314123
Ti       2.93600587       6.32130124      30.51138233  F       0.00024151       0.11620315       0.09472760
Ti       5.87181210       6.31663623      30.53672466  F       0.00005731       0.11766184       0.10875515
Ti       4.40034762       4.18234967      31.68047081  F      -0.01174870       0.01832883       0.24945896
Ti       1.47159954       4.18235656      31.68042742  F       0.01163097       0.01776407       0.24980081
Ti       4.40075866       1.36684773      32.18979086  F      -0.01019954      -0.27444520       0.35990560
Ti       1.47117088       1.36685462      32.18979086  F       0.01040750      -0.27367853       0.36265866
Ti       2.93600000       6.10648341      33.34408185  F      -0.00248493       0.36901692       0.03714560
Ti       5.87199413       6.10732408      33.36061511  F       0.00258706       0.39542896       0.06599932
Ti       0.00002936       3.16826485      33.95924083  F       0.00395999      -0.35174904       0.08610872
Ti       2.93599413       3.17257154      33.95941441  F      -0.00402321      -0.33796710       0.10343833
Ti       1.46954434       1.01937689      35.16938041  F      -0.01473016       0.09715008      -1.21921782
Ti       4.40253787       1.01936311      35.16938041  F       0.01462320       0.09640441      -1.21945985
