64
Lattice="5.872 0.0 0.0 0.0 6.890708 0.0 0.0 0.0 43.394398" Properties=species:S:1:pos:R:3:move_mask:L:1:forces:R:3 job_name=BondOrder-VacuumGB-T1g-Al-Al-49-d-6.96 top_level=BondOrder-VacuumGB solute=Al energy=-482.04785604 stress_kbar_3x3="_JSON [[-17.44923593, -0.00037905, -0.00057061], [-0.00037907, -26.18951798, -0.45570619], [-0.00057062, -0.4557062, -18.20125837]]" pbc="T T T"
Ti       4.40394715       5.20852080      34.63493500  F      -0.00001068      -0.27130481      -0.45217264
Ti       1.46802936       5.20482738      34.62521466  F       0.00004600      -0.28022166      -0.46097864
Ti       0.00452731       3.19033579       8.53645919  F      -0.01442237       0.15647790       0.96109394
Ti       2.93145507       3.19030822       8.53650258  F       0.01436302       0.15663800       0.96111762
Ti       5.87115443       6.62358970       9.15530670  F       0.00508024      -0.19926753       0.14316339
Ti       2.93681034       6.62363105       9.15539348  F      -0.00507329      -0.19939620       0.14270302
Ti       4.40402936       1.76311857      10.44247133  F       0.00003984       0.04851135      -0.50947641
Ti       1.46793541       1.76223655      10.44390334  F      -0.00000441       0.03946756      -0.50204321
Ti       1.46797064       4.59139588      10.66647321  F      -0.00006042       0.12217159      -0.36502892
Ti       4.40399413       4.59164395      10.66417331  F       0.00007653       0.11401585      -0.36534788
Ti       5.87022078       6.72292615      11.97507468  F       0.00447605      -0.09860252       0.01335926
Ti       2.93774398       6.72292615      11.97507468  F      -0.00449761      -0.09863274       0.01361384
Ti       2.93519554       2.87307381      12.58498294  F       0.00326523      -0.07109353       0.10274227
Ti       0.00078098       2.87307381      12.58506973  F      -0.00330321      -0.07122887       0.10227328
Ti       4.40398826       5.00434912      13.74565290  F      -0.00003033       0.05612445      -0.08734687
Ti       1.46797064       5.00419753      13.74643400  F       0.00010099       0.06222967      -0.08339569
Ti       4.40400587       0.93074860      14.22234037  F      -0.00006332       0.01152752       0.04455260
Ti       1.46799413       0.93204405      14.22216679  F       0.00002883       0.00566728       0.04224638
Ti       2.93665179       3.09219143      15.40800550  F       0.00167227      -0.03630858      -0.02821322
Ti       5.87134234       3.09219143      15.40800550  F      -0.00165827      -0.03630963      -0.02785258
Ti       2.93671051       6.01954335      16.00914810  F      -0.00223122       0.00409095      -0.04359430
Ti       5.87130123       6.01955024      16.00914810  F       0.00218679       0.00414798      -0.04336666
Ti       4.40400587       1.29009213      17.19147187  F       0.00015092      -0.00218111       0.00161904
Ti       1.46803523       1.29069162      17.19216618  F      -0.00009498      -0.00940508       0.00217700
Ti       4.40399413       4.10618668      17.67102336  F       0.00016751       0.00456718       0.02726467
Ti       1.46801762       4.10567677      17.67032905  F      -0.00009782       0.00960766       0.02898759
Ti       2.92941162       6.23507781      18.83221406  F      -0.00059534      -0.00716462      -0.00177354
Ti       0.00664123       6.23510537      18.83225745  F       0.00063450      -0.00737723      -0.00208613
Ti       2.94261774       2.38446749      19.43925829  F      -0.00249446      -0.00392422      -0.00206228
Ti       5.86549970       2.38445371      19.43930168  F       0.00239408      -0.00385964      -0.00249869
Ti       1.46810570       4.51106401      20.75337084  F      -0.00010074      -0.01461862       0.00372596
Ti       4.40407046       4.50684000      20.76638916  F       0.00014284      -0.01295765       0.00385871
Ti       4.40404110       0.44181152      20.96743541  F      -0.00012945       0.00619575      -0.00901398
Ti       1.46805872       0.45341548      20.96283560  F      -0.00006575       0.01144404      -0.00836617
Ti       5.84894066       2.46304912      22.25880930  F       0.00390485       0.00198302      -0.00430603
Ti       2.95920027       2.46306979      22.25885269  F      -0.00418992       0.00170664      -0.00473512
Ti       0.03827957       5.93113557      22.88585835  F      -0.00137695       0.00405212       0.00367382
Ti       2.89786723       5.93111489      22.88590174  F       0.00128578       0.00416672       0.00337089
Ti       4.40402349       3.90262138      24.12112328  F       0.00017703       0.00544204      -0.00117908
Ti       1.46803523       3.89817688      24.16226117  F      -0.00007409       0.00152683       0.00493868
Ti       4.40407634       1.05233514      24.41368831  F       0.00001245       0.00696037       0.00492068
Ti       1.46808221       1.06588228      24.36243953  F       0.00000825      -0.00359129       0.01539744
Ti       0.01068117       5.85748768      25.71547686  F      -0.00735106       0.00644352      -0.01145828
Ti       2.92534819       5.85749457      25.71547686  F       0.00739459       0.00635103      -0.01133159
Ti       2.98069766       2.82789144      26.29457510  F      -0.00525491       0.01584016      -0.00399905
Ti       5.82734344       2.82788455      26.29461850  F       0.00528286       0.01588450      -0.00440836
Ti       4.40398238       0.63928543      27.43879859  F       0.00009080      -0.00081600      -0.00685903
Ti       1.46800000       0.74722838      27.42473880  F      -0.00002999      -0.01731866       0.00940221
Ti       1.46799413       4.78554847      27.95228450  F       0.00008892       0.02447869       0.01300986
Al       4.40401762       4.74507245      27.92672520  F      -0.00013678      -0.01266932      -0.00581591
Ti       2.95775576       2.60756794      29.09763624  F      -0.01352026      -0.01995412      -0.00752560
Ti       5.85020314       2.60757483      29.09763624  F       0.01356441      -0.02017612      -0.00730188
Ti       2.92568290       6.53406563      29.66432368  F       0.00238240       0.03392104       0.02774342
Ti       0.01031710       6.53406563      29.66432368  F      -0.00245765       0.03384571       0.02797045
Ti       4.40397651       4.37816292      30.86122797  F       0.00006637      -0.00955285      -0.00148331
Ti       1.46798826       4.37774948      30.92493095  F      -0.00002977      -0.02302681       0.03584166
Ti       4.40398238       1.56565155      31.30771293  F       0.00007479      -0.01021228      -0.04852438
Ti       1.46798238       1.54927922      31.33040820  F       0.00001431       0.01503150      -0.05430001
Ti       2.94637582       6.31953721      32.50006080  F       0.01527518      -0.05445023       0.73301379
Ti       5.86157720       6.31953032      32.50014759  F      -0.01511750      -0.05453203       0.73244015
Ti       5.86183557       3.26567879      33.10814650  F       0.02464914       0.26146907       0.25248850
Ti       2.94615269       3.26567879      33.10814650  F      -0.02458697       0.26140080       0.25252753
Ti       1.46800587       1.14570424      34.44603919  F       0.00012689       0.04137568      -0.77118575
Ti       4.40398238       1.14901178      34.42846446  F      -0.00016517       0.09538979      -0.77220648
