64
Lattice="5.088765 0.0 0.0 0.0 9.739025 0.0 0.0 0.0 38.303587" Properties=species:S:1:pos:R:3:move_mask:L:1:forces:R:3 job_name=BondOrder-VacuumGB-T2-Al-Al-45-d-4.19 top_level=BondOrder-VacuumGB solute=Al energy=-477.49834334 stress_kbar_3x3="_JSON [[-18.37340985, -0.15356295, 0.46900442], [-0.15356296, -19.68403885, -0.45935716], [0.46900439, -0.45935714, -21.05040111]]" pbc="T T T"
Ti       2.55950122       9.26126739      29.94336949  F      -0.86356279       0.02552342      -0.93289816
Ti       0.01447245       4.38847284      29.94861709  F      -0.87305838       0.02428593      -0.96227255
Ti       1.28888749       1.89095831       8.26013023  F      -0.85552374       0.02794385       1.03337970
Ti       3.83080194       6.75887361       8.26802077  F      -0.84665516       0.03503715       1.02678054
Ti       2.71233719       4.09297134       9.03102822  F       0.77617191      -0.61609312       0.58482289
Ti       0.17661577       8.95839345       9.04263421  F       0.76193061      -0.58711645       0.55860225
Ti       1.04377186       6.22365575       9.77580317  F       0.24849052       0.15395955      -0.15326964
Ti       3.58494334       1.35869138       9.76875531  F       0.24225362       0.13925308      -0.13282045
Ti       0.23093833       3.50222156      10.40972754  F      -0.12224349       0.30681135      -0.38999319
Ti       2.77593149       8.37667175      10.41087664  F      -0.12187793       0.29500913      -0.37998408
Ti       1.11376273       0.87577208      11.15691561  F      -0.10256689       0.13797484      -0.46139923
Ti       3.65954464       5.74287904      11.15247239  F      -0.11459833       0.15467774      -0.45838114
Ti       2.76129111       3.11225152      11.84071124  F       0.11895900      -0.01185751      -0.17608561
Ti       0.21913749       7.98148159      11.84151562  F       0.11359248      -0.00731417      -0.17739034
Ti       3.61795925       0.43952220      12.50328669  F      -0.06522284      -0.00484947      -0.14308402
Ti       1.07271675       5.30753489      12.50282705  F      -0.06868781      -0.01084036      -0.14389362
Ti       2.75485382       7.52637695      13.22733940  F      -0.00751321      -0.00793472      -0.01622618
Ti       0.21028304       2.65413753      13.23293172  F      -0.01094960      -0.00477782      -0.01138169
Ti       3.61664126       4.87505401      13.94737022  F       0.03628989      -0.01721047       0.00387494
Ti       1.07516445       0.00401248      13.95380523  F       0.03460298      -0.01592608       0.00048283
Ti       0.21224221       7.07177875      14.61419737  F       0.01164966       0.02242671      -0.03519001
Ti       2.75891465       2.19963671      14.61986630  F       0.01447323       0.02573424      -0.03794580
Ti       1.11521812       4.44155052      15.29489041  F      -0.01673873       0.00356228      -0.00430207
Ti       3.66247577       9.31552350      15.29829943  F      -0.01510869       0.00093882      -0.01088640
Ti       0.23497881       1.81478940      16.05816599  F      -0.00539338       0.01771104      -0.01350758
Ti       2.77449645       6.69369032      16.04108259  F      -0.00551833       0.01129521      -0.00949476
Ti       1.04056593       8.82902024      16.68105892  F      -0.01240528      -0.00113864       0.00719300
Ti       3.56924959       3.97036676      16.67025731  F      -0.00661086       0.00059476       0.00640865
Ti       2.73442752       1.22339684      17.43334137  F       0.00704638       0.01649004       0.00607201
Ti       0.16769516       6.09198414      17.41809655  F       0.01210472       0.00651284       0.00779165
Ti       3.83088845       8.29474707      18.19202052  F      -0.00589916      -0.01349916       0.01037925
Ti       1.28721328       3.40999300      18.20699722  F      -0.00173196      -0.00780001       0.00345286
Ti       0.03675106       0.90191163      18.82812819  F       0.00093848      -0.00773610       0.00415662
Ti       2.53980770       5.78713317      18.80445657  F      -0.00098942      -0.00842434      -0.00037236
Ti       3.82033944       3.41632336      19.36640850  F      -0.00901141      -0.01096040      -0.01002374
Ti       1.28335091       8.27550276      19.41149182  F      -0.00064262      -0.01597332      -0.01543544
Ti       2.40022288       1.22470187      20.23306546  F      -0.01758270      -0.00870782       0.00925232
Ti       4.90920793       6.05405063      20.20564009  F      -0.00942074      -0.01845861      -0.00583652
Ti       1.55324374       3.95739437      20.91946574  F       0.01391944       0.00798126      -0.00404343
Ti       4.08884303       8.81266842      20.91598011  F       0.00890057       0.03228400       0.00779561
Ti       4.81837347       1.85269368      21.59035306  F       0.01379247      -0.00045131       0.00696913
Ti       2.29707870       6.70410133      21.57840234  F       0.00823393      -0.00586433       0.02410447
Ti       1.36884216       9.34115661      22.35703766  F      -0.00208076       0.00922630      -0.00834275
Ti       3.90605459       4.44924435      22.36944802  F      -0.01245582       0.01376999       0.00932091
Ti       4.87863463       7.06572107      22.98950649  F      -0.01556763       0.00404116      -0.01059126
Al       2.27938506       2.20113652      22.98724658  F      -0.00125241      -0.01285348      -0.00446314
Ti       1.41621348       4.83480261      23.62400541  F      -0.01677370       0.03303117       0.00738615
Ti       3.91658325       9.72107598      23.62032826  F       0.00449850       0.03716961       0.00465699
Ti       2.30883883       7.50539909      24.36096642  F      -0.00562608      -0.03603521      -0.02533243
Ti       4.83224036       2.60943540      24.37203616  F       0.01593105      -0.02649734      -0.05246108
Ti       4.04259125       5.32738302      25.10627762  F      -0.00069566       0.04453898       0.04920129
Ti       1.48995477       0.43614276      25.08838984  F       0.00291570       0.05233374       0.03900807
Ti       4.87058929       7.99948905      25.75108020  F      -0.00608356      -0.09665825       0.05331150
Ti       2.35391511       3.10766444      25.73166028  F      -0.03585665      -0.09587580       0.05040437
Ti       1.43694511       5.75112800      26.45992638  F       0.04418745       0.01854197       0.19930457
Ti       3.99019732       0.86801982      26.50347756  F       0.04738395       0.03331683       0.23659539
Ti       2.32294998       8.36015436      27.17436489  F      -0.04558336       0.24529474       0.45215928
Ti       4.88200848       3.50223130      27.16463578  F      -0.05743858       0.24389375       0.47013933
Ti       1.50797409       1.34674159      27.82437676  F      -0.10594980       0.25104714       0.67147663
Ti       4.05397990       6.21429655      27.83958328  F      -0.11340481       0.26852046       0.67565425
Ti       4.93646335       8.93091966      28.56689179  F       0.16480887      -0.07981414      -0.07896843
Ti       2.38048865       4.05665452      28.54693562  F       0.19630687      -0.06227081      -0.08028143
Ti       3.83726976       1.88222241      29.33579800  F       0.83662387      -0.44399280      -0.63471150
Ti       1.28829719       6.74549219      29.34100729  F       0.84227612      -0.46380106      -0.63886741
