100
Lattice="4.4265 -2.555641 0.0 3.767997 6.526363 -0.031456 0.0 0.0 61.781652" Properties=species:S:1:pos:R:3:move_mask:L:1:forces:R:3 job_name=BondOrder-VacuumGB-CSL13-V-V-48-d-0.01 top_level=BondOrder-VacuumGB solute=V energy=-761.13534434 stress_kbar_3x3="_JSON [[-36.34096732, -1.72177319, -0.04897228], [-1.72177321, -39.40417391, -0.07634792], [-0.04897228, -0.07634796, -24.78225252]]" pbc="T T T"
Ti       2.47897623      -0.89149870       8.02206453  F       0.09976363      -0.01720495       1.73876959
Ti       5.77463786       1.55672831       8.00639806  F      -0.06467526       0.07312571       1.74105481
Ti       4.99085524      -0.80040599       9.38699521  F       0.42600337      -0.00581198      -0.13589955
Ti       4.59799713       3.77764127       9.37138961  F      -0.21753522       0.37455682      -0.13541330
Ti       7.10656249       3.86436441      10.63736879  F      -0.14793273      -0.05021973      -0.97744633
Ti       3.81179945       1.41561860      10.65260279  F       0.02874105      -0.15594060      -0.97485251
Ti       1.66618105      -0.43865151      10.87847500  F       0.31768519      -0.27110834      -0.12267263
Ti       2.14682778       3.63459019      10.86299473  F      -0.39616388       0.13631566      -0.11957987
Ti       4.72570415       3.65930408      12.16741773  F       0.06082339      -0.12530287      -0.32457235
Ti       4.82398823      -0.74827050      12.18345435  F      -0.13444514      -0.01143779      -0.32707754
Ti       3.44883407       5.87561414      13.26561480  F      -0.08936215       0.03229629       0.05571596
Ti       2.95648810       1.80912700      13.28158933  F       0.07328897      -0.05871842       0.05265650
Ti       2.41333920      -0.95390900      13.75761788  F       0.04260648      -0.03952896       0.01681252
Ti       5.75377118       1.46822620      13.74145803  F      -0.05078847       0.01576072       0.01597964
Ti       4.29087633       3.76200346      14.96085535  F      -0.00215378       0.01805071      -0.02076738
Ti       5.13348572      -1.07630825      14.97485680  F       0.01386320       0.01186478      -0.01404428
Ti       6.93194086       3.60024546      15.86869018  F      -0.00276943       0.00143132      -0.00380654
Ti       3.67293684       1.13153290      15.88373638  F       0.00177630      -0.00631241      -0.00532811
Ti       6.38211518       0.88916795      16.61113266  F      -0.00816758       0.00446135       0.01164821
Ti       1.60011219      -0.70077154      16.62883739  F       0.01058753      -0.00577001       0.01224324
Ti       4.78946880       3.18821666      17.69609772  F      -0.00605493       0.00027410       0.01740791
Ti       4.38801873      -0.93083628      17.70935417  F       0.00085380      -0.00162740       0.02202007
Ti       3.18368543       5.41247860      18.49716495  F       0.00152449       0.00241257       0.00091654
Ti       2.69238814       1.34509884      18.51153419  F       0.00856288       0.00024205      -0.00056741
Ti       5.90166543       5.19916924      19.44085896  F      -0.00148054      -0.00514937      -0.01554414
Ti       5.57823038       1.03744121      19.45546605  F      -0.00453788      -0.00309070      -0.01552973
Ti       0.59098692       0.91992179      20.38913203  F       0.00975252      -0.00030275      -0.01336953
Ti       3.86515434       3.37984494      20.37952274  F      -0.00056308       0.00209426      -0.01165592
Ti       3.31573530       0.65210363      21.19789248  F       0.00577581       0.00700193      -0.00904943
Ti       6.70072403       3.04612097      21.18445969  F      -0.00321554       0.00573035      -0.01380073
Ti       5.09826715       5.36307722      22.28006871  F      -0.00031282       0.00600069      -0.01050418
Ti       6.11399671       0.41773996      22.30058281  F      -0.00135270       0.00715319      -0.01492786
Ti       4.55202814       2.64763167      23.00484995  F       0.00348221       0.00468453      -0.00113733
Ti       4.03873062      -1.41949854      23.00678431  F       0.00618250       0.00864879       0.00453578
Ti       7.18180275       2.49885736      23.92285538  F      -0.00057192      -0.00503124       0.00279921
Ti       2.61023980       0.79695745      23.93953712  F      -0.01519129      -0.00574555       0.00856190
Ti       5.73785141       4.80295612      25.14996034  F       0.00231331      -0.00528391       0.01211172
Ti       5.30417568       0.69286707      25.16356055  F      -0.00326524      -0.00155027       0.01317486
Ti       3.61465511       2.94963740      25.60820489  F       0.00857248      -0.00239329       0.01238549
Ti       0.33670348       0.48838353      25.60738579  F       0.00314250       0.00419428       0.00713117
Ti       2.88856836       0.50565880      26.73513475  F      -0.00194351       0.00380925       0.01024724
Ti       6.75792061       2.61010865      26.70820763  F      -0.00408239       0.01263311      -0.00354439
Ti       4.91670269       5.19962649      28.00504678  F       0.01640439      -0.00161236      -0.00579218
Ti       1.62060439       2.74250598      28.04842449  F      -0.00614688       0.00549231      -0.00910245
Ti       4.38294356       2.41541903      28.27354591  F       0.01017003       0.01040556      -0.00762536
Ti       3.90923785      -1.66844345      28.22726844  F      -0.00201957       0.00879378       0.00770226
Ti       6.91326136       2.47612168      29.49045734  F       0.01290450      -0.00692273      -0.01207845
Ti       2.73239501       0.56871066      29.52282090  F      -0.01115126       0.00068939       0.00960265
V        3.55384907       2.82621408      30.86781752  F       0.00740744       0.00978816       0.00016224
Ti       4.66438923      -2.12167731      30.88202659  F      -0.00483445       0.00038274       0.00035055
Ti       5.63800109       4.65472844      30.87044990  F      -0.01006903       0.00010767       0.00036150
Ti       5.24913836       0.66764598      30.88425331  F       0.01284608       0.00889011      -0.00030361
Ti       2.72443258       0.57534400      32.24738440  F      -0.01169348       0.00059384      -0.01204928
Ti       6.92413821       2.47415803      32.24886894  F       0.01486058      -0.00602065       0.00745476
Ti       3.91302475      -1.65790777      33.52957095  F      -0.00133349       0.01020439      -0.00745657
Ti       4.38999908       2.42597327      33.45345208  F       0.00687100       0.01090836       0.01072024
Ti       1.62185286       2.75476828      33.72215735  F      -0.00612698       0.00312094       0.01053061
Ti       4.92362374       5.20934469      33.73839629  F       0.01597471      -0.00277288       0.00436795
Ti       2.91775959       0.50994195      35.03999513  F       0.00121527       0.00284911      -0.00766619
Ti       6.74307581       2.64106038      35.03746726  F      -0.00802662       0.01141494       0.00129621
Ti       0.35685030       0.52328908      36.13573779  F       0.00320036       0.00534342      -0.00706894
Ti       3.62937465       2.98528339      36.10159712  F       0.00770955      -0.00316692      -0.01129012
Ti       5.33091448       0.71734465      36.61310092  F      -0.00152170      -0.00118007      -0.01231753
Ti       5.74058919       4.84042052      36.59604408  F       0.00098289      -0.00412728      -0.01083311
Ti       7.23679189       2.52456746      37.81344896  F      -0.00048991      -0.00200627       0.00496442
Ti       2.60499242       0.85809775      37.82932519  F      -0.01089607      -0.00292699      -0.00255122
Ti       4.58786588       2.71443751      38.69843246  F       0.00862463       0.00371623       0.00416586
Ti       4.07510255      -1.35736943      38.72985247  F       0.00401030       0.01079626       0.00036000
Ti       6.13341889       0.48188429      39.47159385  F      -0.00291234       0.00627539       0.01717228
Ti       5.14204828       5.41339286      39.46213782  F      -0.00196591       0.00558611       0.01272962
Ti       3.37664495       0.70688811      40.55190545  F       0.00358290       0.00656988       0.00670094
Ti       6.71803120       3.12446082      40.53403022  F      -0.00369314       0.00500461       0.00878071
Ti       3.91832498       3.45116696      41.33184519  F       0.00102012       0.00176589       0.00360011
Ti       0.62611492       1.00447141      41.35386243  F       0.00884367      -0.00140926       0.00544374
Ti       2.17466504      -1.25245431      42.34185869  F      -0.00425447      -0.00499371       0.00092135
Ti       5.62358635       1.11096034      42.32821774  F      -0.00293494      -0.00343100       0.00172474
Ti       3.23950157       5.49247177      43.19459249  F       0.00215313      -0.00049482       0.00306851
Ti       2.73328504       1.43098197      43.21274026  F       0.00482939       0.00218190       0.00137255
Ti       4.79779933       3.28173755      44.02887402  F       0.00538369       0.00920727      -0.00646237
Ti       4.46408068      -0.87608946      44.04701003  F       0.00170581       0.01150445      -0.01104706
Ti       6.42568493       0.94345183      45.18473599  F      -0.00476717       0.00599982      -0.01524585
Ti       1.62662038      -0.63602803      45.19761955  F       0.00957898      -0.00522511      -0.01446313
Ti       6.98153500       3.67591225      45.79837268  F      -0.01398843      -0.01250775      -0.01364454
Ti       3.71484536       1.21288135      45.81477357  F      -0.00207049      -0.02370342      -0.00907342
Ti       4.38147621       3.77172215      46.78683134  F       0.01797052       0.00787490      -0.01274161
Ti       5.09727285      -0.99363524      46.80379926  F      -0.00849081       0.02463714      -0.01953026
Ti       5.75267958       1.49837300      48.06958489  F       0.05312672      -0.03066246      -0.01268018
Ti       2.44097643      -0.94041840      48.08463291  F      -0.05254932       0.02757336      -0.01334375
Ti       3.46307090       5.90908490      48.40192522  F      -0.01151654      -0.07502933       0.00435634
Ti       2.97889475       1.83795923      48.41752878  F      -0.05749909      -0.04576562       0.00721330
Ti       4.68675813       3.69602575      49.59289938  F       0.01539228       0.03033382       0.36687808
Ti       4.87547908      -0.76386701      49.60838035  F       0.02342456       0.02602635       0.36860281
Ti       2.14771026       3.63733517      50.93431532  F       0.15778162      -0.02735624       0.48794825
Ti       1.66843914      -0.43657021      50.95028938  F      -0.10185575       0.12628069       0.48583174
Ti       7.11158759       3.86659725      51.05132363  F       0.48394057      -0.13685546       0.17431940
Ti       3.81151907       1.42112339      51.06748360  F      -0.36166596       0.34901307       0.17587886
Ti       4.62052234       3.76547171      52.37796523  F       0.14154019      -0.23147042       0.16389016
Ti       4.96902776      -0.78703813      52.39381821  F      -0.26758706       0.00936412       0.16398349
Ti       3.48556807       5.97340310      53.74032188  F       0.04467867      -0.08061839      -1.38689640
Ti       3.02211829       1.89023274      53.75604928  F      -0.09480981      -0.00364873      -1.38627399
