52
Lattice="5.088765 0.0 0.0 0.0 5.495746 0.0 0.0 0.0 48.722931" Properties=species:S:1:pos:R:3:move_mask:L:1:forces:R:3 job_name=BondOrder-VacuumGB-C1-V-V-27-d-1.38 top_level=BondOrder-VacuumGB solute=V energy=-396.63417366 stress_kbar_3x3="_JSON [[-37.69706282, -0.00768231, 0.23772617], [-0.0076823, -22.49276325, 2.14161131], [0.23772618, 2.14161131, -29.65181963]]" pbc="T T T"
Ti       2.59337204       0.15188593      40.04347679  F      -0.12466460      -0.14339432      -0.94058920
Ti       0.50933449       1.71055644       8.63911162  F      -0.00482824      -0.14154092       0.82122038
Ti       0.34197010       4.45761607       8.63740632  F      -0.00063531      -0.13718965       0.83289733
Ti       2.49850219       3.06334531       9.99862756  F       0.08904722      -0.00255196      -0.04289711
Ti       3.43785259       0.31624171       9.99950457  F      -0.08508045      -0.00997314      -0.04800959
Ti       0.89018784       0.34217064      11.05211478  F      -0.13455478       0.11060777      -0.39288909
Ti       5.04551559       3.08870818      11.05304051  F       0.13127218       0.12151670      -0.40071243
Ti       3.10633991       1.61749148      12.42137531  F      -0.08552015      -0.06048953      -0.01291038
Ti       2.82661558       4.36497977      12.42137531  F       0.08077331      -0.05941209      -0.02333452
Ti       0.02656335       5.40790200      13.72101077  F      -0.07902129       0.04467157      -0.00657534
Ti       0.81496063       2.66047415      13.72208267  F       0.07584233       0.03763789      -0.00710742
Ti       3.41643907       3.25879602      14.94351783  F      -0.03974810      -0.02330245      -0.00434252
Ti       2.51069488       0.50972495      14.94405378  F       0.04568337      -0.01830425      -0.00314072
Ti       0.78167501       4.05816876      16.21430932  F       0.00633415       0.01556753      -0.00277142
Ti       0.05382387       1.31171366      16.21489399  F      -0.00627367       0.00356879      -0.01393857
Ti       2.59736672       2.13023908      17.48115424  F      -0.01559243       0.01248205      -0.01600813
Ti       3.32821006       4.87747458      17.48125169  F       0.00879303       0.01716236      -0.01838046
Ti       0.87388344       0.17854030      18.74049584  F      -0.00325344       0.02087658      -0.00210440
Ti       5.04694553       2.92918316      18.74273710  F       0.00723425       0.02038891      -0.00090992
Ti       3.33696783       0.79857036      19.96261312  F      -0.00278803      -0.00199079       0.01563839
Ti       2.57912859       3.54419011      19.96553650  F       0.00483427       0.02241576       0.02009409
Ti       0.30774306       4.66909237      21.28963087  F      -0.00184105       0.00300596       0.00024465
Ti       0.51680988       1.92071926      21.28743834  F       0.00085280       0.01862776       0.01901689
Ti       2.47828962       0.49424893      22.64500536  F      -0.00308245       0.02048967       0.00117651
Ti       3.43968455       3.19499590      22.64646705  F       0.00857663      -0.00414697      -0.00220696
Ti       0.90010584       3.26103828      23.69834641  F      -0.00921440      -0.00921898      -0.02157855
Ti       5.02522668       0.58019140      23.70268275  F      -0.00784799       0.02374389      -0.00571738
V        2.96819012       1.90447384      24.99652018  F       0.00613113      -0.00779616      -0.01081313
Ti       2.96314715       4.64293262      24.99690997  F       0.00796162       0.02525201      -0.01817965
Ti       5.03142988       3.27755300      26.29259887  F       0.01697853      -0.02054804       0.01697822
Ti       0.91098053       0.59571139      26.28723935  F       0.00750287       0.02154473       0.00746557
Ti       3.46033476       0.50805424      27.34496546  F      -0.02203233       0.01255628      -0.00605562
Ti       2.49404444       3.20990586      27.34467312  F      -0.01562024      -0.02367552       0.00447034
Ti       0.54134791       4.69037740      28.70155802  F       0.00109856      -0.01614227       0.00502097
Ti       0.32711090       1.94028412      28.70277610  F       0.00680069       0.01843708      -0.00329790
Ti       2.59474092       0.82079516      30.02282647  F      -0.00613122      -0.01141101      -0.00508870
Ti       3.35967390       3.56736567      30.01907480  F       0.01617288       0.00953272      -0.00528836
Ti       5.06219147       0.21453194      31.24577204  F       0.01060627      -0.00629455       0.00169743
Ti       0.88936855       2.96784023      31.24172803  F      -0.01709823      -0.01881778       0.00784332
Ti       3.33733931       2.13642180      32.50418790  F      -0.00968628      -0.02863463       0.02175432
Ti       2.61139136       4.88304726      32.50457768  F       0.00851726      -0.02576848       0.02427185
Ti       0.80888464       1.28472955      33.77941317  F       0.02047968      -0.01838735      -0.00521311
Ti       0.05233795       4.02968431      33.77926700  F      -0.01948197       0.00155984      -0.00601022
Ti       2.55214287       3.26253862      35.02759722  F       0.02649915      -0.01464960      -0.05562499
Ti       3.39504081       0.51372035      35.02706126  F      -0.02139579      -0.00576808      -0.05953861
Ti       0.80251860       5.23463761      36.27495297  F       0.00735842      -0.05022499       0.02702297
Ti       0.05533014       2.48670965      36.27402724  F      -0.01142687      -0.05128579       0.02721739
Ti       2.61349302       1.61774428      37.54886273  F       0.10895747      -0.02315366       0.62591300
Ti       3.33221492       4.36633173      37.55003208  F      -0.10627690      -0.03203847       0.61974349
Ti       0.88341978       3.52598820      38.80737604  F       0.22981761       0.26108972      -0.00688627
Ti       5.06084295       0.77697758      38.80859411  F      -0.22833896       0.26729524      -0.00933116
Ti       3.34905364       2.90079213      40.04425636  F       0.12730949      -0.14391935      -0.94223524
