52
Lattice="4.6568 0.0 0.0 0.0 7.770572 0.0 0.0 0.0 41.044546" Properties=species:S:1:pos:R:3:move_mask:L:1:forces:R:3 job_name=BondOrder-VacuumGB-CSL7-Al-Al-35-d-4.99 top_level=BondOrder-VacuumGB solute=Al energy=-388.36980279 stress_kbar_3x3="_JSON [[-21.68563612, 0.00194829, -1.24165428], [0.00194829, -26.61656478, -0.46066687], [-1.24165427, -0.46066689, -19.5516309]]" pbc="T T T"
Ti       1.82331416       7.38194238       8.22783074  F       1.05308309      -0.10710218       0.83086221
Ti       4.62825847       5.59705754       8.87415920  F      -0.09435229      -0.10524739       0.00903671
Ti       2.45835266       2.27161017       9.12231453  F      -0.59465327       0.30086168       0.68306057
Ti       4.56353827       0.62016935       9.59022235  F      -0.28720684      -0.36595360       0.24153083
Ti       2.35737461       5.00655623      10.33542713  F      -0.07698339       0.01965639      -0.38738918
Ti       0.02300459       3.33510619      10.52558651  F       0.01279254       0.27780599       0.06834088
Ti       2.30797062       0.01224642      11.16501949  F      -0.04202115       0.17328121      -0.48343486
Ti       0.02773590       6.10498874      11.60033795  F      -0.00548554      -0.02659804      -0.23469490
Ti       2.33955769       2.76415564      12.11540595  F       0.01892360      -0.07935451      -0.20689780
Ti       0.00237031       1.11695756      12.50898211  F      -0.04203763      -0.08730003       0.09276982
Ti       2.34393974       5.56770031      13.13039653  F       0.04139402       0.03459461      -0.05092195
Ti       0.00678961       3.87460146      13.46404765  F       0.00173960       0.00717601      -0.03059134
Ti       2.33400679       0.56463307      14.09457396  F      -0.00187663      -0.01318671      -0.01082217
Ti       0.01757011       6.64072306      14.42916910  F       0.02557571       0.01395340      -0.04356283
Ti       2.33061664       3.32210602      15.05009099  F       0.02413041      -0.01953703      -0.02017355
Ti       0.00975134       1.67497788      15.43886493  F       0.00478218      -0.04631095      -0.01749844
Ti       2.35749103       6.09946387      15.95684710  F      -0.00192824      -0.00948310      -0.01800459
Ti       4.63789339       4.42414409      16.39897895  F      -0.01376096       0.01162633      -0.00176387
Ti       2.34953256       1.10029745      17.02310232  F      -0.00047179       0.00709696      -0.01977120
Ti       0.02831800       7.19819167      17.21568333  F       0.00128970      -0.00678955       0.01694732
Ti       2.23040230       3.80636030      17.98136934  F       0.00009165       0.00422900       0.01967441
Ti       0.12067166       2.15005511      18.42235194  F      -0.00016591      -0.01061841       0.00420225
Ti       2.31105808       6.61010701      18.68811537  F       0.00518386      -0.03133360       0.02147509
Ti       4.14489660       4.80386863      19.33973859  F       0.01446617      -0.00840449       0.01453857
Ti       2.70735176       1.63400365      20.03983541  F      -0.00454636      -0.00922979       0.00716310
Ti       0.36901415       7.61998609      20.04788014  F      -0.00899557      -0.00447586      -0.00156284
Ti       1.25766198       4.82189635      20.79739459  F      -0.00608752      -0.00015240       0.00585693
Ti       3.12280817       6.59957011      21.43830518  F       0.00434666       0.00334871       0.00226617
Ti       0.61482799       2.15592966      21.61397583  F      -0.01081670      -0.00382749      -0.01086339
Ti       3.18674138       3.79496087      22.14517435  F       0.00442920      -0.00250608      -0.00330674
Ti       0.74243828       7.23322141      22.88073366  F       0.02002482       0.00939188      -0.00363340
Ti       3.08674591       1.13322914      23.06941544  F       0.00258754      -0.00186775       0.00391079
Ti       0.75021048       4.44625913      23.74628104  F      -0.00594283       0.01402749       0.01462717
Ti       3.04545872       6.12748455      24.15414070  F      -0.00424606       0.02270021       0.00283294
Ti       0.74228461       1.75149470      24.63949245  F      -0.00471303       0.01485560       0.01519522
Al       3.07925778       3.34193652      25.00630756  F      -0.00248600       0.00230797      -0.00976050
Ti       0.73341340       6.73658084      25.66884862  F      -0.02167800       0.00027381       0.01435488
Ti       3.06894762       0.63042651      26.01772726  F       0.01968014       0.01615812      -0.03109909
Ti       0.75461116       3.87317168      26.55524664  F       0.00507004       0.03042082       0.03004916
Ti       3.06149674       5.57596043      26.89965142  F      -0.02593139       0.02109324       0.00465526
Ti       0.75132811       1.09254242      27.64099801  F       0.08626109       0.01782988       0.02418078
Ti       3.05544756       2.75333901      27.91098904  F      -0.00707243       0.00198665      -0.00928092
Ti       0.72540836       6.07347130      28.46032924  F       0.00272801      -0.05378153       0.06538095
Ti       3.10550816       7.75336018      28.92815498  F      -0.02380086       0.02876995       0.26293025
Ti       0.71655113       3.32212934      29.53360307  F      -0.02325511       0.00537553       0.28855204
Ti       3.04763345       4.98264618      29.70143422  F       0.09576676       0.23047701       0.42855623
Ti       0.84666212       0.60803949      30.51358265  F      -0.16791479       0.11966741       0.06079847
Ti       2.94733994       2.26055264      30.93149822  F       0.36256172       0.13871067      -0.21855833
Ti       0.78358111       5.58819908      31.16976181  F      -0.12204089      -0.26664609       0.22889713
Ti       3.58474876       7.38247855      31.85175799  F      -1.24756021      -0.14919347      -0.12781209
Ti       0.37302365       2.80022664      32.55025407  F       0.32067971      -0.14032329      -1.26246182
Ti       2.70596403       4.56009801      32.54684737  F       0.72044313       0.02154680      -0.25878033
