64
Lattice="5.871999 0.0 0.0 0.0 6.890708 0.0 0.0 0.0 43.401158" Properties=species:S:1:pos:R:3:move_mask:L:1:forces:R:3 job_name=BondOrder-VacuumGB-T1m-V-V-48-d-6.60 top_level=BondOrder-VacuumGB solute=V energy=-485.82330394 stress_kbar_3x3="_JSON [[-19.45884241, 0.000398, -0.00029096], [0.00039804, -28.13414963, -0.91396752], [-0.00029094, -0.91396751, -18.25247219]]" pbc="T T T"
Ti       2.93607584       0.09720033      34.53330319  F      -0.00003574      -0.29615490      -0.20734959
Ti       2.93604648       2.93150012      34.51277445  F       0.00002575       0.12737161      -0.97436439
Ti       5.87199313       0.09451295      34.53135014  F       0.00002729      -0.28954743      -0.20499600
Ti       0.00000587       2.93007375      34.52236610  F      -0.00002524       0.12837636      -0.98156931
Ti       4.40584306       5.01813743       8.53687758  F      -0.00434803      -0.00545629       0.94514311
Ti       1.46619705       5.01818566       8.53687758  F       0.00435248      -0.00571792       0.94535553
Ti       4.40502685       1.32222350       9.15777454  F      -0.00364273      -0.26397641       0.15754343
Ti       1.46704261       1.32225107       9.15812175  F       0.00352206      -0.26524954       0.15456493
Ti       2.93601124       3.41089357      10.34206194  F       0.00019382       0.13873042      -0.25612636
Ti       0.00003523       3.41107273      10.34284316  F      -0.00014421       0.13622990      -0.25515722
Ti       2.93604648       6.22753937      10.74495489  F      -0.00042863       0.14061915      -0.54071819
Ti       0.00002349       6.22798038      10.74686454  F       0.00032546       0.13981074      -0.54241796
Ti       1.46825225       1.49142484      11.97077720  F      -0.00109123      -0.02737162       0.00002494
Ti       4.40381135       1.49141795      11.97112441  F       0.00120976      -0.02708757      -0.00388713
Ti       1.46818765       4.44340415      12.57782919  F       0.00037916      -0.00291744       0.06556153
Ti       4.40385245       4.44350751      12.57800280  F      -0.00029152      -0.00404804       0.06362461
Ti       2.93610520       6.60022331      13.74150104  F      -0.00114315       0.04720734      -0.10520066
Ti       5.87194615       6.60011995      13.74193505  F       0.00105602       0.04624419      -0.10406842
Ti       2.93615804       2.52374248      14.24465067  F      -0.00149593       0.02624810       0.03994011
Ti       5.87195202       2.52363912      14.24426006  F       0.00122904       0.02661052       0.04180094
Ti       4.40423413       4.68632228      15.40958115  F       0.00072551      -0.02414633      -0.01188830
Ti       1.46780597       4.68642564      15.40975475  F      -0.00065508      -0.02549754      -0.01404405
Ti       4.40403448       0.74131615      16.01606893  F      -0.00130683       0.00680418      -0.03417405
Ti       1.46797039       0.74130237      16.01624253  F       0.00145542       0.00692641      -0.03616301
Ti       0.00001174       2.90319309      17.23177877  F       0.00000494      -0.00292399      -0.01313368
Ti       2.93599950       2.90391662      17.23225618  F      -0.00003025      -0.00479948      -0.01192009
Ti       0.00004698       5.72527567      17.65120756  F      -0.00031053       0.01923764       0.02793728
Ti       2.93597601       5.72435920      17.65242279  F       0.00026221       0.01913403       0.02721517
Ti       1.47203969       0.94225608      18.83653658  F      -0.00111964      -0.00007802       0.00381991
Ti       4.39994170       0.94233188      18.83679699  F       0.00119621      -0.00078712       0.00116208
Ti       1.46501677       4.09418996      19.45166120  F       0.00087959       0.00564900      -0.02155382
Ti       4.40699984       4.09419685      19.45170460  F      -0.00091567       0.00570126      -0.02211013
Ti       2.93599950       2.15449700      20.89718016  F      -0.00017222       0.00948865       0.00593401
Ti       5.87199313       2.15186475      20.89483650  F       0.00018365       0.00040310      -0.00054113
Ti       2.93599363       6.20861749      20.84123607  F      -0.00006174      -0.00105954      -0.00524300
Ti       5.87199313       6.20590944      20.84045485  F       0.00003135       0.00284630      -0.00870303
Ti       4.41350602       4.14410624      22.28054867  F      -0.00296338       0.00869325       0.00909839
Ti       1.45848124       4.14412692      22.28063548  F       0.00297240       0.00836743       0.00813975
Ti       4.39240792       0.88157651      22.90057762  F       0.00151395      -0.00939963      -0.01526076
Ti       1.47956759       0.88158340      22.90049082  F      -0.00155525      -0.00964476      -0.01435676
Ti       2.93600537       5.71703438      24.13772763  F      -0.00000731      -0.00668620       0.01043248
Ti       0.00000587       5.72688120      24.11025469  F       0.00002935      -0.00704493       0.00431413
Ti       2.93597601       2.88278971      24.42799457  F      -0.00005104      -0.01047973      -0.00420112
Ti       5.87198138       2.89309132      24.45967742  F       0.00006499      -0.00290750      -0.00564797
Ti       4.41535570       0.78950976      25.72629681  F       0.00108443       0.00072171      -0.00683493
Ti       1.45666679       0.78948909      25.72629681  F      -0.00113057       0.00062650      -0.00721378
Ti       4.44680025       4.60575612      26.29611061  F       0.00021455      -0.00014682       0.00275225
Ti       1.42522224       4.60574234      26.29619742  F      -0.00031323       0.00015067       0.00169437
V        0.00008808       2.49779207      27.44823776  F      -0.00001256      -0.01096989       0.01747223
Ti       2.93597014       2.48629148      27.45691799  F       0.00023647      -0.01303580       0.03187897
Ti       0.00000587       6.60978762      27.95138738  F      -0.00007726      -0.01158764      -0.03359969
Ti       2.93598188       6.53213623      27.91870631  F       0.00017272      -0.00368877      -0.00999114
Ti       1.43990223       4.39496247      29.08033830  F       0.00606416      -0.04467325      -0.04015252
Ti       4.43213200       4.39495558      29.08042510  F      -0.00614077      -0.04441885      -0.04107465
Ti       1.44371316       1.47676830      29.66464809  F       0.02888220       0.01476306      -0.01169358
Ti       4.42833869       1.47676830      29.66469149  F      -0.02904987       0.01456040      -0.01266000
Ti       2.93598776       6.20879665      30.89858641  F       0.00023774       0.03192151       0.04311860
Ti       0.00001762       6.20707397      30.89203284  F      -0.00008632       0.02460254       0.05816553
Ti       2.93601712       3.39404579      31.29883189  F      -0.00001720       0.01282024      -0.06151598
Ti       0.00002936       3.38927742      31.32882209  F       0.00005590       0.00236842      -0.02069535
Ti       4.40032338       1.29858149      32.49297136  F       0.00270433      -0.07478138       0.70035797
Ti       1.47173434       1.29855392      32.49314496  F      -0.00267832      -0.07443405       0.69925339
Ti       4.40167981       5.02156900      33.10931120  F      -0.02239776       0.20857959       0.28677806
Ti       1.47036617       5.02153455      33.10926780  F       0.02240632       0.20890421       0.28714405
