64
Lattice="5.088765 0.0 0.0 0.0 9.739025 0.0 0.0 0.0 38.303587" Properties=species:S:1:pos:R:3:move_mask:L:1:forces:R:3 job_name=BondOrder-VacuumGB-T2-V-V-36-d-1.39 top_level=BondOrder-VacuumGB solute=V energy=-481.80517837 stress_kbar_3x3="_JSON [[-19.63974902, -0.72694197, 0.02571408], [-0.72694196, -22.72504654, 0.12592235], [0.0257141, 0.12592236, -21.88195184]]" pbc="T T T"
Ti       2.54328333       9.25520972       7.99943602  F       0.85137341       0.02734483       1.01834522
Ti       0.00167929       4.38508366      30.30265714  F      -0.84362818       0.02579545      -1.03121402
Ti       1.26837977       1.87843392       8.61217850  F      -0.98440199      -0.62303929       0.72069559
Ti       3.81560688       6.74710887       8.61658341  F      -0.71519096       0.19824322       0.68616939
Ti       2.71015920       4.07107801       9.39349507  F       0.93088868      -0.40279756       0.67582252
Ti       0.16709978       8.94226563       9.39119685  F      -0.25506855      -0.23902094       0.03633105
Ti       1.04186866       6.21783182      10.11976938  F       0.18271226       0.33522020      -0.25539341
Ti       3.58228192       1.35167928      10.12237403  F       0.10513322       0.09935634      -0.51912819
Ti       0.22185489       3.50208522      10.76920670  F      -0.16719258       0.34190451      -0.15013374
Ti       2.76798283       8.37328257      10.76920670  F       0.06233948       0.22904565      -0.52804452
Ti       1.10057774       0.87804128      11.50256718  F      -0.05773685       0.04950064      -0.14267547
Ti       3.64821196       5.74384321      11.50555486  F      -0.06318600       0.02436426      -0.41971499
Ti       2.75902661       3.10347666      12.20654880  F       0.07397516      -0.04195091      -0.17587336
Ti       0.21458304       7.97868649      12.18973353  F       0.05118518      -0.06506261      -0.04579893
Ti       3.60522716       0.43802239      12.86583014  F      -0.01520246       0.07030032      -0.05665490
Ti       1.06160289       5.30293807      12.85705862  F      -0.03527973      -0.04515828      -0.12195101
Ti       2.75068612       7.52424411      13.58846561  F       0.01373970      -0.00855185       0.03388048
Ti       0.20864445       2.64432059      13.60497446  F      -0.03850245      -0.01437423      -0.03647874
Ti       3.60156834       4.86681479      14.30458948  F       0.02790916       0.01041685      -0.00902537
Ti       1.06414727       0.00013635      14.30110385  F       0.00744277       0.01481517      -0.05018607
Ti       0.20490421       7.06811687      14.96057671  F       0.01598744       0.00712999      -0.01407300
Ti       2.75877217       2.18974186      15.00611967  F       0.01251154       0.00663975      -0.02807478
Ti       1.09130601       4.42869501      15.65885110  F      -0.00727708      -0.00178545      -0.00421250
Ti       3.64740794       9.31340039      15.66946119  F      -0.00343324       0.00317678      -0.00860047
Ti       0.24835718       1.77299924      16.43871213  F      -0.00167910       0.00540501       0.00061962
Ti       2.76506697       6.67387140      16.39351390  F      -0.01712999       0.02218987      -0.00938291
Ti       1.05734868       8.81994347      17.03494576  F      -0.00108585       0.01042311       0.00858247
Ti       3.57160569       3.94908699      17.04207023  F      -0.00044385       0.01313736      -0.00357416
Ti       2.74661002       1.22687367      17.89807879  F       0.00635698      -0.00568520       0.00561481
Ti       0.14293832       6.10042787      17.75221873  F       0.01704952       0.00964997      -0.00011854
Ti       3.84342716       8.32073079      18.52840262  F       0.00370574      -0.01371137       0.00488355
Ti       1.23619842       3.45457825      18.51265985  F      -0.00186001      -0.01411142       0.01222133
Ti       0.15213881       0.94969128      19.24031309  F       0.01617646      -0.01364796      -0.00048786
Ti       2.52175276       5.80572497      19.15864984  F      -0.00476993      -0.00914446      -0.00477942
Ti       3.76169142       3.39269649      19.77434170  F       0.01285932      -0.01776841      -0.00042437
Ti       1.31011273       8.31693257      19.79364671  F       0.00006082      -0.01028155      -0.00134842
V        2.50646102       1.25173741      20.59679632  F       0.01107617       0.00527107      -0.01645103
Ti       4.93119648       6.10566747      20.52382799  F      -0.00727349      -0.00103633      -0.01299958
Ti       1.47363001       3.90011917      21.25052364  F       0.01175444       0.00605131      -0.00725570
Ti       3.98572939       8.84323922      21.22792452  F       0.01602773       0.00989588       0.00291093
Ti       4.82158957       1.80158328      21.90382962  F       0.01633857       0.01412516       0.01768372
Ti       2.29617290       6.62875050      21.91359703  F      -0.00024686       0.01265176      -0.00756727
Ti       1.44743305       9.33450486      22.54177586  F       0.02389818       0.00499647       0.01318618
Ti       3.98260489       4.44759846      22.63822429  F       0.00401522       0.00229122       0.01379477
Ti       4.88130623       7.08667945      23.32359037  F      -0.01130184       0.00935624       0.01741361
Ti       2.33130064       2.19463085      23.34465735  F      -0.01414530       0.01075539       0.01823725
Ti       1.46319296       4.87021371      24.00401529  F       0.00145518       0.00946033       0.03898858
Ti       4.03116697       0.01049867      23.98601261  F      -0.01887837       0.00761521       0.00961313
Ti       2.33049662       7.54168670      24.68574254  F       0.03200295      -0.02797208       0.02987058
Ti       4.87968291       2.66335064      24.70761388  F      -0.01882863      -0.00735387      -0.03356816
Ti       4.00431865       5.30831401      25.42898534  F       0.02254854       0.06929049       0.07425238
Ti       1.45543259       0.42770876      25.42346962  F       0.05064448      -0.02977604       0.11673640
Ti       4.86341413       7.97197630      26.10500534  F      -0.07604381      -0.02936615       0.18605975
Ti       2.32256832       3.10541473      26.10692052  F      -0.05679824      -0.06022468       0.04839891
Ti       1.44208985       5.74699865      26.78056571  F       0.04422977       0.04536656       0.13683912
Ti       3.98036074       0.87149665      26.77018544  F       0.04065935       0.01888181       0.43298164
Ti       2.32229353       8.37323387      27.52671958  F       0.14329325       0.35206279       0.15609188
Ti       4.86548526       3.49876421      27.52928592  F      -0.07727079       0.24797709       0.52522700
Ti       1.50759752       1.34584560      28.17152217  F      -0.20263214       0.32566723       0.24054676
Ti       4.05361351       6.21766625      28.17818699  F      -0.12532130       0.09022858       0.51845163
Ti       4.91759930       8.94945303      28.90262273  F      -0.92257760      -0.40657886      -0.68572890
Ti       2.37527266       4.07595726      28.90151193  F       0.24693189      -0.22614331      -0.03911699
Ti       3.81540842       1.87880401      29.67838528  F       0.70534385       0.20253084      -0.67801226
Ti       1.27404356       6.75164725      29.67807885  F       0.98276078      -0.63399188      -0.70240122
