64
Lattice="5.088765 0.0 0.0 0.0 9.739025 0.0 0.0 0.0 38.303587" Properties=species:S:1:pos:R:3:move_mask:L:1:forces:R:3 job_name=BondOrder-VacuumGB-T2-Al-Al-52-d-6.97 top_level=BondOrder-VacuumGB solute=Al energy=-477.41715535 stress_kbar_3x3="_JSON [[-19.01607153, 0.77527432, 0.09701511], [0.77527431, -20.8079957, -0.24630088], [0.09701511, -0.24630087, -20.69199573]]" pbc="T T T"
Ti       2.58468043       9.26466631      29.93072931  F      -0.81852579      -0.07653967      -1.00025746
Ti       5.08642926       4.38032127      29.95344334  F      -0.79539644      -0.00379825      -0.94785881
Ti       1.29018512       1.87540509       8.26721640  F      -0.83746344       0.03912544       1.02060268
Ti       3.83270514       6.75796788       8.24929032  F      -0.84159765       0.00752739       1.04973195
Ti       2.71204713       4.08219998       9.03838251  F       0.78454103      -0.59191504       0.58024985
Ti       0.18925117       8.94704749       9.01582170  F       0.72321807      -0.59445631       0.61749991
Ti       1.02837325       6.20500552       9.78262121  F       0.26699329       0.19598106      -0.18436811
Ti       3.59339069       1.34586508       9.77381138  F       0.23486766       0.13183734      -0.13942144
Ti       0.22944224       3.48780781      10.41466870  F      -0.13391745       0.32441918      -0.37468961
Ti       2.78096936       8.36402076      10.39298887  F      -0.11481700       0.29841333      -0.34231436
Ti       1.11887185       0.86148493      11.15235748  F      -0.10945215       0.14247569      -0.47296469
Ti       3.65743280       5.73752258      11.15944364  F      -0.11460878       0.12047213      -0.44836949
Ti       2.75477240       3.10682689      11.84040481  F       0.12627615      -0.01728902      -0.18205027
Ti       0.21443547       7.97900788      11.83320374  F       0.13645978      -0.01891864      -0.17734358
Ti       3.61638682       0.43504225      12.50140981  F      -0.06119487      -0.00650981      -0.14441021
Ti       1.06837095       5.30385354      12.50903223  F      -0.06005603      -0.00807606      -0.15454181
Ti       2.75369867       7.52497453      13.22017662  F      -0.01254593      -0.00713493      -0.01608066
Ti       0.20846126       2.65144956      13.22695636  F      -0.00839672      -0.00645919      -0.02878840
Ti       3.61371013       4.87346654      13.95265612  F       0.03290117      -0.01870333      -0.01599515
Ti       1.07083391       0.00159720      13.95150701  F       0.03885333      -0.02263689      -0.00563948
Ti       0.21551429       7.06872069      14.61446549  F       0.01195442       0.02385351      -0.04370035
Ti       2.76227324       2.19956854      14.61373773  F       0.00156980       0.02079126      -0.03962638
Ti       1.11077562       4.43671023      15.30140202  F      -0.00673077      -0.00153817      -0.00450703
Ti       3.65495966       9.30424571      15.29692050  F      -0.01477649      -0.00363030      -0.00302568
Ti       0.22782910       1.80578080      16.04326590  F       0.00174602       0.01405960       0.00215572
Ti       2.77232355       6.68144836      16.04610036  F      -0.00037997       0.01071251      -0.00650418
Ti       1.03770096       8.82606932      16.68684277  F      -0.00655388       0.00079861       0.01236047
Ti       3.58563033       3.96065695      16.67830107  F      -0.01008289      -0.00511755       0.02054251
Ti       2.72445863       1.22751645      17.40890368  F       0.01436161       0.00377298       0.02025868
Ti       0.17112499       6.09335734      17.42169708  F       0.01106432       0.00587144       0.01763766
Ti       3.82972312       8.29226362      18.19703829  F       0.00351797      -0.01096197       0.00094029
Ti       1.28390559       3.42362763      18.18742409  F       0.00410605      -0.01742626       0.00402064
Ti       0.01249292       0.91786415      18.82184640  F      -0.00400265      -0.00396088      -0.00538073
Ti       2.55692122       5.79103852      18.81594765  F      -0.00127284      -0.01398922      -0.00244634
Ti       3.83168738       3.42889644      19.41612655  F      -0.01670980       0.00148462      -0.01249263
Ti       1.29059222       8.29405560      19.42363406  F      -0.01426614       0.00300035      -0.01727327
Ti       2.39885400       1.23754765      20.18920785  F      -0.01328832       0.01270700       0.00132775
Ti       4.93178169       6.11365347      20.21111750  F      -0.01233749       0.00081478      -0.01305879
Ti       1.51318498       3.96036478      20.92095958  F       0.00540688       0.00670689      -0.00941422
Ti       4.05395446       8.82888390      20.93697048  F       0.01388085       0.00447783      -0.00197086
Ti       4.86567354       1.81756502      21.58353502  F       0.00997493      -0.00003852       0.00562265
Ti       2.33518846       6.67769884      21.59360887  F       0.01614535      -0.01221154       0.01337570
Ti       1.44550950       9.31401395      22.25993807  F      -0.01183963       0.00400692      -0.02698478
Ti       3.98292548       4.43095447      22.30115273  F      -0.01250346       0.02360543       0.00907593
Ti       4.89907111       7.07288899      23.02842293  F       0.01033139      -0.00327632       0.00549281
Ti       2.32719910       2.18256420      23.00731766  F       0.00294132      -0.01529891      -0.00736901
Ti       1.49501300       4.85242051      23.65235006  F      -0.00260506       0.04658149       0.01607842
Ti       4.02696874       0.00411961      23.67161677  F       0.00009738      -0.02197189       0.05433230
Ti       2.28880946       7.56417411      24.38896634  F       0.00677854      -0.06913856      -0.07450993
Ti       4.85304323       2.66942780      24.39570777  F       0.00237606      -0.02861769      -0.02962932
Ti       3.96939445       5.34037488      25.13060039  F      -0.04393160       0.04948992       0.05870629
Ti       1.37422608       0.45771470      25.13427754  F      -0.01171208       0.03247921       0.02896798
Al       4.82501431       7.97733277      25.77072994  F      -0.03381098      -0.02869993       0.00698406
Ti       2.33219118       3.11488106      25.76850833  F       0.01061997      -0.08955297       0.03379620
Ti       1.36366689       5.73349062      26.40216457  F       0.02860741       0.00490499       0.19801840
Ti       3.91429839       0.84056551      26.40469261  F       0.05864364      -0.02682965       0.22935128
Ti       2.27781263       8.33167745      27.16544015  F      -0.11925751       0.29457868       0.40808643
Ti       4.84485032       3.47494255      27.17808033  F      -0.06560399       0.24452391       0.41212694
Ti       1.53756526       1.36094109      27.84318382  F      -0.10367917       0.21700349       0.73052397
Ti       4.08529616       6.21532889      27.83644239  F      -0.13339443       0.31392869       0.63303559
Ti       4.94591828       8.93884723      28.52050615  F       0.30148855      -0.03639712      -0.08826995
Ti       2.36923739       4.10558338      28.55317911  F       0.12461751      -0.04417304      -0.13598540
Ti       3.83500017       1.88698479      29.34119880  F       0.80649635      -0.42375561      -0.58767565
Ti       1.28033327       6.74936832      29.38520962  F       0.75587456      -0.37138242      -0.44598507
