52
Lattice="5.088765 0.0 0.0 0.0 5.495746 0.0 0.0 0.0 48.722931" Properties=species:S:1:pos:R:3:move_mask:L:1:forces:R:3 job_name=BondOrder-VacuumGB-C1-Al-Al-32-d-3.83 top_level=BondOrder-VacuumGB solute=Al energy=-390.9297595 stress_kbar_3x3="_JSON [[-35.58607984, 0.14240407, 0.21948935], [0.14240409, -25.3863757, 0.17263426], [0.21948933, 0.17263425, -22.69957568]]" pbc="T T T"
Ti       2.61754367       0.79505309      40.71517112  F       0.09666743      -0.02113239      -1.68193186
Ti       0.03146383       1.59888838       9.37248918  F       0.07410092       0.58886505      -0.01179958
Ti       0.81928608       4.34581611       9.37370725  F       0.05553664      -0.56712036       0.34721707
Ti       2.56982124       2.35867526      10.58685951  F      -0.25020323       0.39471470      -0.52201514
Ti       3.36559213       5.10581733      10.58539782  F       0.20310577      -0.33590908      -0.66568298
Ti       0.81153589       0.38891746      11.83036615  F      -0.03020322      -0.02947779      -0.36259192
Ti       0.03377922       3.13614745      11.83158423  F       0.04773155      -0.04323536      -0.23223547
Ti       3.37018220       1.18274499      13.07406769  F      -0.07181014       0.02619346       0.02647468
Ti       2.56271223       3.93068394      13.07236239  F       0.05363588      -0.03461621       0.02911229
Ti       0.01154132       4.70306708      14.31469968  F      -0.03290705      -0.01130880       0.01120014
Ti       0.83501036       1.95460054      14.31850007  F       0.03662130       0.03844141       0.04197643
Ti       3.37202942       2.73823346      15.55835250  F      -0.00536243       0.01378581      -0.02459899
Ti       2.56151637       5.48530958      15.56400436  F       0.00684086       0.00977778      -0.01731530
Ti       0.82340798       3.53821623      16.80760845  F      -0.01762591      -0.00839646       0.00420538
Ti       0.01055919       0.79177213      16.81004459  F      -0.00349190      -0.01219734       0.00568200
Ti       2.55260086       1.57347605      18.04960468  F       0.00584271      -0.00288008       0.00531212
Ti       3.37649735       4.31566095      18.05657206  F      -0.00179887      -0.00304291       0.00434426
Ti       0.82403898       5.09246266      19.28745947  F       0.00484605       0.00030495       0.00203616
Ti       0.02348974       2.34468309      19.30475611  F       0.00073206      -0.00350583       0.00179041
Ti       3.34498263       0.39333604      20.53047888  F      -0.00170132      -0.00103628       0.00404806
Ti       2.56680360       3.14201691      20.55074762  F       0.00363283      -0.00227789       0.00080472
Ti       0.01610594       3.91687863      21.77179299  F      -0.00010164      -0.00784198      -0.00236013
Ti       0.81185648       1.16310869      21.79084366  F       0.00453358       0.00473672      -0.00656748
Ti       2.60479632       4.67225792      23.00735780  F       0.00517980      -0.01039348       0.00431727
Ti       3.36621296       1.92008175      22.98075508  F      -0.00090604      -0.00214266      -0.00421483
Ti       0.75715734       2.74883476      24.33705531  F      -0.00069697      -0.00139661      -0.00433040
Ti       0.08076379       0.00427569      24.42441553  F      -0.00118190       0.00666217      -0.00451984
Ti       3.37339829       1.93045772      25.75079988  F       0.01219280      -0.00386314       0.00559265
Ti       2.56213211       4.67905616      25.77652559  F       0.00299362       0.00051957       0.01484558
Ti       0.06221524       3.93815266      26.98997018  F      -0.00533411       0.00799377       0.01227520
Ti       0.88262593       1.20820129      26.93413370  F       0.00981525       0.00558433      -0.00340962
Ti       3.35683436       0.38990669      28.19357275  F      -0.00440207       0.00019519       0.00684920
Al       2.60467928       3.13211358      28.19678846  F       0.00454866       0.01269207       0.00398340
Ti       0.91322468       5.05965855      29.46996737  F       0.01311168      -0.00304532       0.00242534
Ti       0.04456740       2.32998747      29.41101262  F      -0.00231493       0.00148738      -0.00922829
Ti       2.54340546       1.58270890      30.64199747  F       0.00005887       0.00336842      -0.01392889
Ti       3.42487115       4.33864416      30.64126663  F      -0.00224274       0.00095944      -0.01952271
Ti       0.00226450       0.80044991      31.90562669  F       0.00898351      -0.01524329      -0.00812118
Ti       0.79280923       3.53715555      31.92998816  F      -0.00449093      -0.00920361      -0.00048012
Ti       3.35703283       2.73402372      33.16837889  F      -0.00118433       0.01162666       0.01958921
Ti       2.55250926       5.47822556      33.12701312  F       0.00468130       0.01006163       0.01756257
Ti       0.83190112       1.95644161      34.39897396  F       0.02905357      -0.01448006      -0.00801670
Ti       5.08640890       4.71336061      34.39541719  F      -0.03435357       0.04557945      -0.04235969
Ti       2.55084523       3.93744371      35.63765704  F       0.06696195       0.02092551      -0.03826891
Ti       3.35170998       1.18412442      35.62835096  F      -0.05432299      -0.03486102      -0.03624035
Ti       0.79757740       0.38311395      36.88822851  F      -0.05856861      -0.03823004       0.23090624
Ti       0.02239057       3.13170689      36.87901987  F       0.02933888      -0.01586358       0.35913899
Ti       2.55970477       2.35964251      38.12525500  F      -0.19852453      -0.34775183       0.67256405
Ti       3.36433012       5.10371245      38.12145461  F       0.23716387       0.41497504       0.52929875
Ti       0.80499682       4.35072381      39.33718919  F      -0.06135739       0.57825200       0.01763105
Ti       0.02227861       1.60482928      39.33986895  F      -0.07708000      -0.58639979      -0.32848268
Ti       3.31093879       3.53979351       8.00059761  F      -0.09574454      -0.03084933       1.66703981
