64
Lattice="5.871999 0.0 0.0 0.0 6.890708 0.0 0.0 0.0 43.401158" Properties=species:S:1:pos:R:3:move_mask:L:1:forces:R:3 job_name=BondOrder-VacuumGB-T1m-V-V-34-d-0.00 top_level=BondOrder-VacuumGB solute=V energy=-485.72784293 stress_kbar_3x3="_JSON [[-19.26075647, -0.00096416, 0.00028871], [-0.00096419, -28.36492195, -0.55293914], [0.0002887, -0.55293916, -18.39246089]]" pbc="T T T"
Ti       2.93616392       0.08867652       8.85631010  F      -0.00042853      -0.28274152       0.20272285
Ti       2.93606409       2.92550521       8.85661391  F       0.00023467       0.12894583       0.98221392
Ti       5.87187569       0.09054390       8.85648370  F       0.00042428      -0.28370827       0.20654888
Ti       0.00002349       2.92713830       8.85670071  F      -0.00028276       0.12928165       0.97875362
Ti       4.40479197       5.01680752      10.27183887  F      -0.00065759       0.20588679      -0.29127441
Ti       1.46728924       5.01678685      10.27192567  F       0.00073511       0.20650264      -0.29177477
Ti       4.40236683       1.30824226      10.89091298  F       0.00506998      -0.06432359      -0.69739034
Ti       1.46960868       1.30822848      10.89091298  F      -0.00482357      -0.06466824      -0.69796563
Ti       2.93599363       3.40192187      12.07511358  F       0.00014899       0.00208767       0.05494146
Ti       0.00009395       3.40158422      12.07550419  F      -0.00041116       0.00467383       0.05718339
Ti       2.93605235       6.21429543      12.48095781  F      -0.00028813       0.02063093      -0.04470053
Ti       0.00000000       6.21388888      12.48169563  F       0.00007313       0.01979173      -0.04265510
Ti       1.46780597       1.47720931      13.70599889  F       0.00139402       0.01544577       0.00120521
Ti       4.40421651       1.47716107      13.70595549  F      -0.00121921       0.01559836       0.00155621
Ti       1.46671378       4.43025668      14.31088083  F       0.00293141      -0.02898039       0.02128214
Ti       4.40526173       4.43033936      14.31088083  F      -0.00263113      -0.02954921       0.02105985
Ti       2.93604648       6.58370629      15.47767756  F      -0.00014467      -0.00087942       0.02429715
Ti       0.00004110       6.58345133      15.48249509  F      -0.00000637      -0.00303517       0.02023227
Ti       2.93602299       2.50522025      15.97440382  F      -0.00020609      -0.02661194      -0.02727539
Ti       0.00001762       2.50313926      15.97240736  F       0.00009651      -0.01665860      -0.01891375
Ti       4.39480370       4.65073177      17.13403936  F       0.00835415       0.02568836       0.00848772
Ti       1.47724228       4.65075933      17.13408276  F      -0.00830063       0.02545184       0.00810995
Ti       4.40624823       0.74286656      17.74499746  F       0.00224110       0.00068762       0.01078840
Ti       1.46580949       0.74279765      17.74508426  F      -0.00235983       0.00106652       0.00978074
Ti       0.00004110       2.87300490      19.00289322  F      -0.00006910      -0.00149323       0.01183962
Ti       2.93600537       2.88108770      18.99082770  F       0.00010875      -0.00906104       0.01594438
Ti       0.00005285       5.70571984      19.31529476  F      -0.00029929       0.00570703      -0.00162772
Ti       2.93594665       5.71605590      19.33143999  F       0.00050384       0.00238877       0.00630827
Ti       1.44824635       0.86914567      20.58447482  F       0.00070223      -0.00630628      -0.01626929
Ti       4.42375265       0.86906987      20.58451822  F      -0.00087725      -0.00598082      -0.01670295
Ti       1.52375438       4.19546269      21.16856761  F      -0.00188812       0.00854926      -0.01871479
Ti       4.34834444       4.19531799      21.16861101  F       0.00176645       0.00925771      -0.01942355
Ti       2.93589380       2.13913072      22.55666684  F       0.00044260       0.02471958       0.00944997
Ti       0.00009395       2.23513206      22.55692725  F      -0.00048208       0.02184254       0.00797181
V        2.93601712       6.21432988      22.55636303  F       0.00015893      -0.01671939       0.00082411
Ti       0.00000587       6.25776202      22.55684045  F      -0.00000309      -0.02248018       0.00058161
Ti       4.34816241       4.19569698      23.94541710  F       0.00111089       0.00856491       0.02064311
Ti       1.52375438       4.19556605      23.94546050  F      -0.00083630       0.00929936       0.02054800
Ti       4.42372329       0.86820854      24.52929287  F      -0.00187928      -0.00715419       0.00985406
Ti       1.44829332       0.86824299      24.52907587  F       0.00203976      -0.00758538       0.01177514
Ti       2.93606409       5.71574582      25.78289192  F      -0.00057876       0.02309609      -0.03777002
Ti       5.87192854       5.70544421      25.79908055  F       0.00037348       0.02570861      -0.02907668
Ti       2.93603473       2.88085342      26.12293999  F      -0.00008343      -0.01435856      -0.00481790
Ti       0.00007046       2.87325986      26.11078767  F      -0.00021445      -0.01117209      -0.00453735
Ti       4.40628933       0.74265984      27.36837962  F       0.00272844      -0.00274119       0.02164065
Ti       1.46571554       0.74258404      27.36846643  F      -0.00255332      -0.00243751       0.02093646
Ti       4.39486829       4.65073177      27.97951133  F       0.00350076      -0.02684077       0.01508685
Ti       1.47710722       4.65078000      27.97946793  F      -0.00320556      -0.02684339       0.01498603
Ti       0.00004110       2.50287741      29.14118673  F      -0.00019632       0.02124252      -0.03836450
Ti       2.93604060       2.50498597      29.13940728  F      -0.00008826       0.00932384      -0.03153080
Ti       5.87194028       6.58356158      29.63127260  F       0.00051925       0.03263386       0.10418198
Ti       2.93606409       6.58378208      29.63609013  F      -0.00069322       0.03518745       0.10094825
Ti       1.46671378       4.43027735      30.80301707  F       0.00163131      -0.00089683      -0.05517930
Ti       4.40524411       4.43047029      30.80297366  F      -0.00132655      -0.00206773      -0.05475842
Ti       1.46770615       1.47711284      31.40785560  F       0.00116771      -0.03131496       0.01487488
Ti       4.40436919       1.47699570      31.40794241  F      -0.00120552      -0.03053813       0.01416269
Ti       2.93598188       6.21438501      32.63294009  F       0.00029426       0.14448713       0.55553106
Ti       0.00008808       6.21419896      32.63202867  F      -0.00043933       0.14481044       0.55271073
Ti       2.93597601       3.40201145      33.03800310  F       0.00021815       0.13001742       0.25877936
Ti       0.00004698       3.40167380      33.03752568  F      -0.00023143       0.13054765       0.25709973
Ti       4.40237271       1.30879351      34.22250750  F       0.00619281      -0.26379850      -0.16808105
Ti       1.46961455       1.30863503      34.22268111  F      -0.00607511      -0.26279999      -0.16918619
Ti       4.40465691       5.01675929      34.84188543  F      -0.00076020      -0.01767578      -0.93968335
Ti       1.46740668       5.01679374      34.84166842  F       0.00058267      -0.01770140      -0.93816871
