64
Lattice="5.872 0.0 0.0 0.0 6.890708 0.0 0.0 0.0 43.394398" Properties=species:S:1:pos:R:3:move_mask:L:1:forces:R:3 job_name=BondOrder-VacuumGB-T1g-V-V-41-d-3.41 top_level=BondOrder-VacuumGB solute=V energy=-485.82914993 stress_kbar_3x3="_JSON [[-18.73731541, -0.00148319, -0.00043937], [-0.00148318, -29.18884611, 0.69654865], [-0.00043935, 0.69654866, -18.59872649]]" pbc="T T T"
Ti       4.40398238       5.20950617      34.64196490  F      -0.00006789      -0.27921671      -0.45158783
Ti       1.46799413       5.21053978      34.64222526  F       0.00005274      -0.28232852      -0.45296649
Ti       0.00353494       3.18327281       8.54218725  F      -0.01279868       0.16137605       0.95650000
Ti       2.93244744       3.18325214       8.54197027  F       0.01282658       0.16126663       0.95780224
Ti       5.86946330       6.62495406       9.16198943  F       0.01106267      -0.20399153       0.14756433
Ti       2.93850147       6.62496096       9.16185925  F      -0.01099144      -0.20398217       0.14845179
Ti       4.40396477       1.76429688      10.45557644  F      -0.00052924       0.01788273      -0.53726054
Ti       1.46800000       1.76197471      10.45440479  F       0.00049457       0.01774599      -0.52839454
Ti       1.46798826       4.58574550      10.66955421  F       0.00046168       0.12532054      -0.37006577
Ti       4.40401174       4.58625541      10.66903348  F      -0.00060860       0.11986056      -0.37236425
Ti       5.87149501       6.71378907      11.98214796  F       0.00034203      -0.09306388       0.00463163
Ti       2.93649912       6.71383042      11.98219136  F      -0.00033862      -0.09335903       0.00384662
Ti       2.93429125       2.86579722      12.59431274  F       0.00165488      -0.07709953       0.12307493
Ti       0.00165003       2.86583857      12.59431274  F      -0.00159833      -0.07734067       0.12290184
Ti       4.40401174       4.99297256      13.75467894  F      -0.00020275       0.05584942      -0.07024575
Ti       1.46797064       4.99452986      13.75411481  F       0.00029687       0.05192533      -0.07016095
Ti       4.40395890       0.91552014      14.22789485  F       0.00009071       0.01495018       0.04578114
Ti       1.46800000       0.91517560      14.23127961  F      -0.00003968       0.01779412       0.04268974
Ti       2.93661656       3.06909378      15.41729190  F      -0.00016384      -0.03630094      -0.03854946
Ti       5.87138344       3.06912823      15.41729190  F       0.00016700      -0.03676672      -0.03870481
Ti       2.93471990       6.00948981      16.02038725  F       0.00228006      -0.00858357      -0.05700741
Ti       0.00131533       6.00947603      16.02034385  F      -0.00250660      -0.00833206      -0.05684260
Ti       4.40400587       1.26730456      17.21316907  F       0.00022527      -0.01241005      -0.00411133
Ti       1.46806459       1.26831750      17.22024235  F      -0.00017055      -0.01280835      -0.00211531
Ti       4.40405285       4.07644638      17.66833291  F      -0.00055501       0.01872712       0.03334266
Ti       1.46796477       4.07836889      17.67202143  F       0.00048152       0.02069379       0.03335451
Ti       2.93121432       6.18935796      18.83178011  F       0.00013328      -0.01340045       0.01313960
Ti       0.00487963       6.18930972      18.83173672  F      -0.00024195      -0.01291648       0.01346377
Ti       2.94646978       2.39371482      19.44663534  F       0.00454317       0.00385701       0.00033029
Ti       5.86160656       2.39375616      19.44659194  F      -0.00445082       0.00332358       0.00110863
Ti       1.46810570       4.49044701      20.83048269  F      -0.00005776       0.02097432       0.00362840
Ti       4.40412918       4.48748401      20.82306225  F       0.00007241      -0.00818201      -0.00058046
Ti       4.40408221       0.43482435      20.92087322  F       0.00018283      -0.00330562       0.00525071
Ti       1.46801174       0.45042491      20.89635538  F      -0.00020121      -0.03487983       0.02662790
Ti       5.86804227       2.40161846      22.30150939  F       0.00969817      -0.02140252      -0.02079554
Ti       2.94003406       2.40151510      22.30137920  F      -0.00962386      -0.02118572      -0.02013861
Ti       0.06113339       6.06034323      22.89809557  F       0.01015117       0.02251724      -0.03136008
Ti       2.87504864       6.06037769      22.89800878  F      -0.01014048       0.02233688      -0.03042685
Ti       4.40396477       3.99807836      24.09751673  F      -0.00011793       0.04775473      -0.00992305
Ti       1.46798238       3.90716925      24.08345695  F       0.00026820       0.04021361      -0.00597512
Ti       4.40399413       1.14318913      24.40310008  F       0.00015658      -0.03284389      -0.00043003
V        1.46841104       1.11087171      24.40053981  F      -0.00037443      -0.02704114      -0.00274491
Ti       0.03735179       5.89777765      25.66986935  F       0.00750637      -0.00467995      -0.00447801
Ti       2.89871867       5.89772252      25.66995614  F      -0.00743323      -0.00492254      -0.00534197
Ti       2.94208339       2.81292482      26.22562140  F      -0.00905116       0.01646849       0.05379042
Ti       5.86594010       2.81293860      26.22553461  F       0.00892744       0.01627884       0.05333931
Ti       4.40395890       0.69051785      27.44964719  F       0.00003372       0.02403815       0.03351723
Ti       1.46791779       0.69028356      27.41710139  F       0.00004881       0.01651109       0.01214250
Ti       1.46799413       4.75026805      27.89938673  F      -0.00000245      -0.02416320      -0.03333093
Ti       4.40405285       4.74772537      27.88502318  F      -0.00001667      -0.02694344      -0.03341015
Ti       2.93477862       2.59475122      29.08301233  F      -0.00217595      -0.03380671      -0.06675080
Ti       0.00123899       2.59466164      29.08288215  F       0.00203582      -0.03335550      -0.06622959
Ti       2.93151966       6.53787619      29.68424171  F       0.00306538       0.05641764       0.01289097
Ti       0.00438051       6.53797955      29.68419832  F      -0.00298376       0.05578172       0.01329996
Ti       4.40397651       4.37658495      30.86834465  F       0.00006556       0.02678473       0.04001299
Ti       1.46797651       4.37615084      30.87168602  F      -0.00010758       0.03673559       0.03157026
Ti       4.40397651       1.56209594      31.33617966  F      -0.00007940      -0.00632347      -0.01943602
Ti       1.46795890       1.56040772      31.34442459  F       0.00017348      -0.00380753      -0.02445446
Ti       2.93801997       6.32135636      32.50492098  F      -0.00549518      -0.07042716       0.74626732
Ti       5.86996242       6.32139081      32.50496437  F       0.00541484      -0.07055775       0.74585641
Ti       0.00038755       3.27385806      33.11326704  F      -0.00495696       0.28072334       0.25394299
Ti       2.93553611       3.27387873      33.11331044  F       0.00514429       0.28031413       0.25383254
Ti       1.46797064       1.14633129      34.43427931  F       0.00018527       0.06273523      -0.75239390
Ti       4.40394715       1.14605566      34.43106812  F      -0.00016139       0.06256983      -0.75537615
