64
Lattice="5.088765 0.0 0.0 0.0 9.739025 0.0 0.0 0.0 38.303587" Properties=species:S:1:pos:R:3:move_mask:L:1:forces:R:3 job_name=BondOrder-VacuumGB-T2-Al-Al-53-d-6.97 top_level=BondOrder-VacuumGB solute=Al energy=-477.50995196 stress_kbar_3x3="_JSON [[-18.48460907, 0.64722759, 0.05809215], [0.64722758, -20.14611886, -0.21150809], [0.05809215, -0.21150804, -20.49000963]]" pbc="T T T"
Ti       2.54000616       9.24071805      29.94991941  F      -0.80657443       0.02196494      -0.95588989
Ti       0.03567224       4.38473305      29.93555556  F      -0.82009309      -0.05636573      -1.02204459
Ti       1.28768654       1.87954417       8.25909604  F      -0.86997657       0.00350052       1.05402116
Ti       3.82958572       6.73708741       8.27702211  F      -0.85500061       0.04092764       1.03442558
Ti       2.72142572       4.07260704       9.02175876  F       0.74966823      -0.58436914       0.62273477
Ti       0.16285066       8.94466143       9.04125528  F       0.80842439      -0.57282942       0.59256891
Ti       1.05361862       6.21812399       9.77384969  F       0.23260132       0.13009425      -0.10808466
Ti       3.58018535       1.33877507       9.77913558  F       0.26316005       0.18269092      -0.14953606
Ti       0.22737111       3.50371163      10.39961539  F      -0.11985032       0.28585268      -0.34600015
Ti       2.76761644       8.36749759      10.41757977  F      -0.14147192       0.30294994      -0.37120841
Ti       1.10865870       0.87378532      11.15595802  F      -0.10570646       0.11910893      -0.45577590
Ti       3.65577895       5.73733754      11.15067212  F      -0.09623889       0.14088796      -0.47314931
Ti       2.75489453       3.11121919      11.83343356  F       0.12564876      -0.01534230      -0.17686213
Ti       0.20863936       7.97779050      11.84002178  F       0.11885380      -0.01535256      -0.19175910
Ti       3.61256516       0.43687318      12.51167518  F      -0.06293391      -0.01133546      -0.16522974
Ti       1.06892562       5.30661942      12.50650419  F      -0.05722263      -0.01013213      -0.15582125
Ti       2.75079299       7.52135162      13.22645841  F      -0.00601516      -0.00692450      -0.03538726
Ti       0.20563699       2.65529647      13.22274296  F      -0.00292220       0.00040813      -0.03345301
Ti       3.61395439       4.87047666      13.94840442  F       0.03004921      -0.01831534      -0.01050710
Ti       1.06971438       0.00258084      13.94913219  F       0.02680913      -0.01951631      -0.01924954
Ti       0.21376884       7.06979198      14.61465701  F       0.00610819       0.01891716      -0.05183604
Ti       2.75550518       2.19953932      14.61511666  F       0.01275239       0.02872829      -0.05596437
Ti       1.10665372       4.43251271      15.30105729  F      -0.01358098       0.00006230      -0.02019472
Ti       3.65201327       9.30389510      15.30320229  F      -0.01064919      -0.00608987      -0.01687794
Ti       0.22128495       1.80586845      16.04246152  F       0.00659520       0.01973245      -0.00933504
Ti       2.76576413       6.67155351      16.04085277  F       0.00538090       0.02047144      -0.01271726
Ti       1.04488629       8.82980910      16.68174839  F      -0.01727216      -0.00097427       0.00528078
Ti       3.58709080       3.95667369      16.68680446  F      -0.01568790       0.00694824       0.00031406
Ti       2.71018973       1.23051607      17.41690913  F       0.01821475       0.00861441       0.01719080
Ti       0.17146594       6.10562851      17.40675868  F       0.02211959       0.00091818       0.01303485
Ti       3.82048701       8.30165204      18.18133382  F       0.00631443      -0.01994035       0.01072467
Ti       1.27853694       3.42968530      18.18811355  F       0.00781637      -0.01294400       0.01216723
Ti       0.00610652       0.92726231      18.81403247  F       0.00676854      -0.01736638       0.00313989
Ti       2.54884026       5.79355119      18.81613917  F       0.00879781      -0.00867911       0.00860557
Ti       3.83102075       3.42880879      19.42451504  F      -0.00926174       0.00035740      -0.01322920
Ti       1.28162582       8.30202212      19.42309781  F      -0.00278930      -0.00117670      -0.02133504
Ti       2.38686996       1.24514409      20.20479741  F      -0.00794119      -0.00162492      -0.00164600
Ti       4.93892123       6.10836518      20.18706285  F      -0.01017287       0.00341523       0.00742703
Ti       1.50955160       3.95800793      20.93241235  F       0.01462887       0.00652591       0.00086295
Ti       4.05198002       8.83083170      20.91712922  F       0.00954759       0.00483155       0.00273583
Ti       4.88270055       1.80387195      21.59322583  F       0.01031156      -0.00287525       0.00799184
Ti       2.32374383       6.67962716      21.58502886  F       0.01044707       0.00538337       0.00448489
Ti       1.44675624       9.29894768      22.30199541  F      -0.01386104       0.02590746       0.01561194
Ti       4.00105675       4.44369311      22.26549209  F      -0.02591823       0.00716549      -0.02264045
Ti       4.87878729       7.05590413      22.99912069  F      -0.00714390      -0.01175660       0.00426069
Ti       2.36273903       2.20686306      23.02474579  F      -0.00239892      -0.00921530       0.00495212
Ti       1.47470374       4.87041823      23.67828159  F      -0.00240989      -0.01060978       0.05301292
Ti       4.04053539       9.71686872      23.65445676  F      -0.01240051       0.05137125       0.02071669
Ti       2.31444665       7.52667886      24.39371599  F      -0.00443047      -0.01189116      -0.01665916
Ti       4.84192936       2.68198140      24.39371599  F       0.00063381      -0.06253753      -0.07041752
Ti       3.93337617       5.32461714      25.11841985  F      -0.00905815       0.03942629       0.04123428
Ti       1.44980950       0.46675251      25.12018182  F      -0.04978185       0.03962708       0.05703115
Ti       4.88431369       7.98665301      25.76847003  F       0.00486894      -0.09416418       0.03165478
Al       2.28970508       3.10945642      25.77099807  F      -0.03886174      -0.02728660       0.01196188
Ti       1.39018953       5.71907687      26.41829038  F       0.03624999      -0.01288922       0.22172300
Ti       3.92038456       0.87471053      26.42782798  F       0.02099192       0.01611407       0.20049120
Ti       2.30923576       8.36398180      27.17601194  F      -0.05659254       0.20166610       0.43037949
Ti       4.83055598       3.48277273      27.16149488  F      -0.10764902       0.27322412       0.42697526
Ti       1.51984109       1.34969252      27.83333980  F      -0.13999567       0.30799166       0.62952355
Ti       4.07191271       6.23479720      27.84555864  F      -0.10733939       0.20198116       0.70337937
Ti       4.92282037       8.95675729      28.55773723  F       0.12776855      -0.05383305      -0.11110317
Ti       2.40458395       4.05693695      28.52403008  F       0.29589156      -0.03564208      -0.08052462
Ti       3.82769270       1.86619197      29.37230132  F       0.78642120      -0.38013053      -0.47178516
Ti       1.29561992       6.74146023      29.33238898  F       0.83535869      -0.42565670      -0.60439534
