100
Lattice="4.4265 -2.555641 0.0 3.767997 6.526363 -0.031456 0.0 0.0 61.781652" Properties=species:S:1:pos:R:3:move_mask:L:1:forces:R:3 job_name=BondOrder-VacuumGB-CSL13-V-V-61-d-5.27 top_level=BondOrder-VacuumGB solute=V energy=-761.24021601 stress_kbar_3x3="_JSON [[-36.2668632, -1.92356307, -0.05133922], [-1.92356309, -39.07736988, -0.64232272], [-0.05133923, -0.64232272, -24.44586471]]" pbc="T T T"
Ti       2.48130226      -0.88912596       8.01741747  F       0.11962535      -0.02023185       1.76211674
Ti       5.77546074       1.55976876       8.00156638  F      -0.07722207       0.09099575       1.76073594
Ti       4.99769607      -0.79782918       9.37980494  F       0.41728600      -0.00656759      -0.10870808
Ti       4.59637918       3.78480590       9.36382972  F      -0.21531735       0.35983007      -0.10654608
Ti       7.10845710       3.86935313      10.62097466  F      -0.14366415      -0.04696303      -0.98092150
Ti       3.81475030       1.42013672      10.63682598  F       0.03036421      -0.15013535      -0.98081623
Ti       1.67017217      -0.43432500      10.87517660  F       0.30238358      -0.26037972      -0.12586958
Ti       2.14830966       3.64059166      10.85920126  F      -0.37703571       0.13046809      -0.12382525
Ti       4.73592536       3.66041652      12.16177024  F       0.03973368      -0.12470463      -0.33440935
Ti       4.82004812      -0.73908644      12.17749834  F      -0.12793239      -0.02818278      -0.33496621
Ti       3.44831935       5.87779961      13.25022434  F      -0.08162006       0.03244630       0.04168881
Ti       2.95764451       1.81019971      13.26595228  F       0.06890218      -0.05492965       0.04134272
Ti       2.41181849      -0.94843645      13.75692167  F       0.03940512      -0.04295827       0.00664285
Ti       5.75874331       1.47001971      13.74107048  F      -0.05739797       0.01315024       0.00715506
Ti       4.28208987       3.76660643      14.95214584  F      -0.00352458       0.02027694      -0.02765344
Ti       5.13882590      -1.07894762      14.96787387  F       0.01956124       0.00685959      -0.02690486
Ti       6.92870199       3.59788634      15.85338362  F      -0.00517452      -0.00517954      -0.01472096
Ti       3.66949043       1.12870188      15.86904977  F      -0.00211835      -0.00738526      -0.01451402
Ti       6.37814985       0.88887290      16.61219229  F      -0.00673712      -0.00157378      -0.00656302
Ti       1.59874389      -0.70254859      16.62773460  F       0.00212012      -0.00609084      -0.00692958
Ti       4.78898946       3.18154935      17.68524925  F      -0.00628542       0.00544342       0.00844087
Ti       4.37872463      -0.93251010      17.70134801  F       0.00680758      -0.00212924       0.00692118
Ti       3.17479587       5.40978806      18.48434264  F      -0.00121143       0.00098680       0.00147058
Ti       2.68879614       1.33924533      18.49982433  F       0.00085032      -0.00020601       0.00226021
Ti       5.89508580       5.19579769      19.43680729  F       0.00341448      -0.00447250      -0.00536071
Ti       5.56955094       1.03267144      19.45265945  F      -0.00505105       0.00190413      -0.00595016
Ti       0.58598100       0.91192598      20.37860672  F       0.00374914       0.00299083      -0.00487964
Ti       3.85543819       3.37492536      20.36201481  F       0.00212772       0.00386543      -0.00294340
Ti       3.30260526       0.64887661      21.18866431  F       0.00425887       0.00542265      -0.00059306
Ti       6.69624267       3.04065910      21.17336808  F       0.00116912       0.00616264      -0.00173990
Ti       5.08979909       5.35644505      22.27906007  F       0.00380611       0.00515656       0.00481185
Ti       6.11122448       0.41596420      22.29466397  F       0.00388433       0.00604193       0.00462001
Ti       4.53881745       2.63867321      22.97945586  F       0.00551923       0.00427459       0.00459210
Ti       4.03300767      -1.41994488      22.99629499  F       0.00203475       0.00623703       0.00117022
Ti       7.16590916       2.50800742      23.91686265  F      -0.00369624       0.00575409      -0.00139062
Ti       2.60627206       0.78967622      23.93191080  F       0.01000564       0.00034985       0.00136224
Ti       5.74108612       4.80081010      25.15539813  F       0.00718411       0.00290308       0.00216489
Ti       5.30544175       0.70178642      25.17038343  F       0.00001692       0.00328428       0.00428105
Ti       3.61814700       2.94803905      25.58324359  F      -0.00097328       0.00392505      -0.00317868
Ti       0.33634804       0.49176491      25.59897200  F       0.00332003       0.00282243      -0.00102340
Ti       2.88858487       0.51677889      26.72984308  F       0.00106916       0.00003199      -0.00141040
Ti       6.78950325       2.61369857      26.71356552  F       0.00277844      -0.00395019       0.00334850
Ti       4.93238885       5.21375173      28.02745150  F      -0.00086906      -0.00400989      -0.00525992
Ti       1.64186336       2.75809533      28.04196025  F      -0.00124896       0.00379965      -0.00449003
Ti       4.39643959       2.42921630      28.22385720  F      -0.00383456       0.00097654      -0.00262902
Ti       3.92538487      -1.65307018      28.23656998  F       0.00179810       0.00471153       0.00496747
Ti       6.90302149       2.51574451      29.50238290  F      -0.00328725       0.00530084       0.00083646
Ti       2.75982542       0.56738834      29.51992648  F      -0.00179366       0.00728539      -0.00414827
Ti       3.59329559       2.88401845      30.91670443  F       0.00433570       0.00518922       0.00451678
Ti       0.29449574       0.43186879      30.91496920  F       0.00063195       0.00683813      -0.00217489
Ti       5.73721093       4.73826242      30.87828140  F       0.00028555       0.00629126      -0.00496169
Ti       5.26240992       0.66073200      30.89648337  F       0.00389764       0.00559731       0.00085943
Ti       2.76912300       0.56895573      32.29235304  F      -0.00095613       0.00597805       0.00404105
Ti       6.88254315       2.52507027      32.27898293  F      -0.00301803       0.01315426      -0.00045819
Ti       3.92565453      -1.65520988      33.57105211  F      -0.00642010       0.00444482       0.00895481
Ti       4.39403945       2.42692985      33.65484837  F       0.00210436      -0.00178073       0.02141252
Ti       1.64619858       2.75755899      33.72716254  F       0.00419917      -0.00502460       0.00244527
Ti       4.93783512       5.21573269      33.71801737  F       0.00053733       0.01151297      -0.00233591
Ti       2.88151756       0.53393804      35.08261337  F       0.01428438       0.01045981       0.00876149
Ti       6.83538572       2.58724312      35.08294045  F      -0.00071079       0.00317288       0.00096233
Ti       4.73638799      -1.98872218      36.18331174  F      -0.01042031       0.01121800      -0.00368687
V        3.54132346       2.90075430      36.18246438  F      -0.00844982       0.01076107       0.00625788
Ti       5.30640534       0.76167291      36.56616134  F       0.00695427      -0.00081051      -0.00846842
Ti       5.61042713       4.73758265      36.57877080  F       0.00325446      -0.00252436      -0.01067066
Ti       7.30389402       2.45650961      37.83820582  F       0.00888242       0.00340358       0.00006157
Ti       2.57732068       0.83864895      37.83723774  F      -0.00187643       0.01453170      -0.00420705
Ti       4.59746460       2.74104020      38.65679899  F       0.01123625      -0.00386773      -0.01060987
Ti       4.01689221      -1.38691076      38.72989540  F       0.00580129       0.00597903      -0.00677811
Ti       6.08788950       0.45649931      39.44984815  F       0.00410193       0.00414136       0.00301634
Ti       5.13021078       5.42878113      39.50473624  F       0.00504654      -0.00485517      -0.00892394
Ti       3.39576571       0.69663190      40.54634227  F       0.00998643       0.00636724       0.00106199
Ti       6.70050397       3.09823268      40.53323489  F      -0.00512012       0.00727050      -0.00302145
Ti       3.88822711       3.43599048      41.30657061  F       0.01524511       0.00638105       0.00064116
Ti       0.61841871       1.02357739      41.35170885  F       0.00330192       0.00271703       0.00667824
Ti       5.94531296       5.25425229      42.31856161  F      -0.00908255      -0.00838668      -0.00371421
Ti       5.63012973       1.11231659      42.33153539  F      -0.00963712      -0.00220835       0.00109142
Ti       3.25441903       5.49853913      43.17192734  F       0.00189973       0.00062155       0.01526305
Ti       2.73315432       1.41710843      43.20716856  F      -0.00414163       0.00045871       0.00603194
Ti       4.78417234       3.28571539      44.01887945  F       0.00599730       0.00940818       0.00928950
Ti       4.46493650      -0.87771480      44.03953854  F       0.00392908       0.00755929       0.00970792
Ti       6.43426305       0.93675019      45.18980841  F       0.00021065       0.00427523      -0.01347082
Ti       1.62843590      -0.63603201      45.19273502  F      -0.00059378      -0.01199459      -0.00364565
Ti       6.98303617       3.67211303      45.77818068  F      -0.01697614      -0.01663445      -0.01421420
Ti       3.72234530       1.21964607      45.80274783  F       0.00207701      -0.02254522      -0.00993208
Ti       4.39298994       3.76536185      46.78522398  F       0.01712836       0.01017587      -0.02248531
Ti       5.08992395      -0.99119363      46.79799829  F       0.00184270       0.01057536      -0.01576839
Ti       5.75465299       1.49771225      48.07001563  F       0.04633196      -0.03638769      -0.00628172
Ti       2.44526519      -0.94440864      48.07963407  F      -0.05174269       0.02404198      -0.00293142
Ti       3.46527215       5.90949346      48.38702977  F      -0.00812025      -0.07303529       0.01551647
Ti       2.98197296       1.83621684      48.40319531  F      -0.06669975      -0.04658597       0.01975519
Ti       4.68425888       3.69668553      49.58795968  F       0.00844787       0.03192868       0.38013641
Ti       4.87958944      -0.76709290      49.60177279  F       0.02355960       0.02285767       0.37789319
Ti       2.14769471       3.63620421      50.93135392  F       0.16093953      -0.02684032       0.49531302
Ti       1.66828813      -0.43694422      50.94757265  F      -0.09531658       0.12415607       0.49423688
Ti       7.11149324       3.86585115      51.03934089  F       0.48530451      -0.12626611       0.16740430
Ti       3.81195459       1.42008878      51.05704533  F      -0.34911472       0.35655307       0.16576453
Ti       4.62220821       3.76596898      52.36949583  F       0.14747982      -0.24274424       0.14333644
Ti       4.96873250      -0.78583214      52.38541216  F      -0.28508797       0.00519328       0.14236432
Ti       3.48755110       5.97606089      53.72708686  F       0.05006021      -0.09074187      -1.39371613
Ti       3.02345637       1.89324549      53.74306145  F      -0.10299044      -0.00358787      -1.39290289
