64
Lattice="5.872 0.0 0.0 0.0 6.890708 0.0 0.0 0.0 43.394398" Properties=species:S:1:pos:R:3:move_mask:L:1:forces:R:3 job_name=BondOrder-VacuumGB-T1g-Al-Al-35-d-1.29 top_level=BondOrder-VacuumGB solute=Al energy=-482.12247136 stress_kbar_3x3="_JSON [[-16.81592554, -7.994e-05, -0.00028965], [-7.993e-05, -29.43828515, 0.41652473], [-0.00028965, 0.41652474, -15.74385911]]" pbc="T T T"
Ti       4.40250264       5.21550798      34.65246634  F       0.00133691      -0.29161227      -0.42756480
Ti       1.46947974       5.21546663      34.65246634  F      -0.00128925      -0.29127571      -0.42751046
Ti       5.87193541       3.19058385       8.54709081  F       0.00005823       0.16295626       0.94299262
Ti       2.93603523       3.19010839       8.54904356  F      -0.00011047       0.16385903       0.95791526
Ti       0.00004110       6.63236847       9.16871556  F      -0.00031170      -0.20235264       0.11066593
Ti       2.93595302       6.63461484       9.16658924  F       0.00025927      -0.20533830       0.12216839
Ti       4.40792837       1.76812811      10.45635754  F      -0.01000192       0.04383409      -0.52998642
Ti       1.46401878       1.76817634      10.45635754  F       0.01003779       0.04365914      -0.52998414
Ti       1.46669054       4.59937532      10.67159375  F      -0.00168590       0.10337922      -0.36225217
Ti       4.40528597       4.59938221      10.67159375  F       0.00168543       0.10347333      -0.36232835
Ti       5.87197651       6.72545504      11.98631383  F      -0.00002753      -0.09962344       0.00794691
Ti       2.93596477       6.72316043      11.98219136  F      -0.00001185      -0.08612439      -0.00319334
Ti       2.93597651       2.87574051      12.58372450  F      -0.00001476      -0.07481008       0.10288078
Ti       5.87195302       2.87350792      12.59778429  F       0.00013240      -0.07088316       0.10711524
Ti       4.40084086       5.00122074      13.74239833  F       0.00574703       0.05744277      -0.07430657
Ti       1.47108867       5.00122074      13.74244172  F      -0.00568896       0.05750001      -0.07445032
Ti       4.40336582       0.92972189      14.22407614  F      -0.00395283       0.01103332       0.05121657
Ti       1.46856371       0.92972878      14.22403275  F       0.00399062       0.01107192       0.05141316
Ti       2.93600000       3.09274269      15.40279818  F      -0.00002810      -0.03307423      -0.02949954
Ti       5.87198826       3.08235839      15.42475574  F       0.00003832      -0.03010087      -0.03133791
Ti       2.93600000       6.00986880      16.01149140  F      -0.00010572      -0.00098244      -0.05206082
Ti       5.87197064       6.01413414      15.98901310  F       0.00009980      -0.00322680      -0.05365550
Ti       4.38724131       1.26417618      17.17953841  F       0.00300062      -0.00610519      -0.00617791
Ti       1.48481741       1.26418307      17.17953841  F      -0.00303127      -0.00611387      -0.00608226
Ti       4.37436989       4.10441577      17.65826541  F       0.00235902      -0.00042128       0.01493478
Ti       1.49763598       4.10442266      17.65826541  F      -0.00224273      -0.00046884       0.01481184
Ti       2.93605872       6.26510751      18.86879553  F      -0.00004732      -0.00264061      -0.00819836
Ti       0.00005285       6.20697061      18.82522756  F      -0.00008978      -0.00119450      -0.00259456
Ti       2.93606459       2.35963338      19.44008278  F      -0.00006777      -0.01726126      -0.00816447
Ti       0.00001762       2.36506325      19.34708859  F      -0.00010865      -0.01282001       0.00037256
Ti       1.45147032       4.47530123      20.72503430  F       0.00195118      -0.00224008      -0.00167451
Ti       4.42062950       4.47525989      20.72503430  F      -0.00209787      -0.00185639      -0.00175268
Ti       4.42863304       0.46559825      20.94825508  F       0.00777915       0.01045125       0.01142900
Ti       1.44344330       0.46557069      20.94821169  F      -0.00791880       0.01081095       0.01173231
Ti       5.87190605       2.48344562      22.18933487  F       0.00068262      -0.02715586      -0.01364022
Al       2.93597064       2.48812441      22.25182280  F       0.00003366      -0.01290873      -0.00069770
Ti       0.00004698       5.91147638      22.86919490  F      -0.00008556       0.00622911      -0.02387982
Ti       2.93606459       5.90808615      22.85096925  F       0.00001193       0.01386321      -0.02156132
Ti       4.37382379       3.88243850      24.15679348  F      -0.00241748       0.00061351      -0.00969861
Ti       1.49826429       3.88250741      24.15688027  F       0.00215301      -0.00007794      -0.01031826
Ti       4.40113446       1.09569148      24.37406923  F       0.00638874      -0.01396349      -0.00049827
Ti       1.47100646       1.09562946      24.37411262  F      -0.00645793      -0.01346661      -0.00061192
Ti       0.00006459       5.84515331      25.67086742  F      -0.00010774       0.01418123       0.00974678
Ti       2.93606459       5.84489836      25.66813357  F       0.00004804       0.01125058       0.00483304
Ti       2.93604110       2.84500107      26.33011511  F       0.00000594       0.01117155       0.01680975
Ti       0.00002349       2.83349358      26.28984511  F       0.00008166      -0.00227552       0.01434853
Ti       4.40892074       0.67323595      27.43263658  F      -0.00109019      -0.00712626       0.02301806
Ti       1.46312037       0.67322906      27.43263658  F       0.00114357      -0.00709278       0.02294228
Ti       1.46832296       4.76296762      27.92594410  F       0.00443464       0.00986829      -0.00139730
Ti       4.40374163       4.76296762      27.92594410  F      -0.00446350       0.00997795      -0.00115816
Ti       2.93600587       2.58606893      29.11655620  F       0.00010782      -0.02567632      -0.01940714
Ti       0.00002349       2.58481482      29.09433827  F      -0.00011240      -0.03183047      -0.01652493
Ti       2.93600000       6.55393154      29.70359561  F       0.00010416       0.03757453       0.00691852
Ti       0.00001762       6.55615035      29.70216360  F      -0.00004832       0.03652244       0.01323160
Ti       4.40488080       4.38428187      30.89264551  F       0.00283049       0.02760079       0.02558012
Ti       1.46713094       4.38428187      30.89260212  F      -0.00283436       0.02757592       0.02578347
Ti       4.40603758       1.57094361      31.36247666  F       0.00455447       0.00069627      -0.02838079
Ti       1.46596829       1.57094361      31.36247666  F      -0.00454154       0.00055675      -0.02834621
Ti       2.93600000       6.32747531      32.52284286  F      -0.00007068      -0.06063844       0.72700617
Ti       0.00000587       6.32728926      32.52397112  F       0.00007733      -0.05253939       0.73033505
Ti       0.00000000       3.28352572      33.12958334  F       0.00012011       0.29068110       0.26365812
Ti       2.93601762       3.28194086      33.12993049  F      -0.00011251       0.27773164       0.25290938
Ti       1.46804110       1.15378704      34.44078847  F       0.00286441       0.06975393      -0.73796958
Ti       4.40400587       1.15378704      34.44078847  F      -0.00294296       0.06995808      -0.73785089
