64
Lattice="5.872 0.0 0.0 0.0 6.890708 0.0 0.0 0.0 43.394398" Properties=species:S:1:pos:R:3:move_mask:L:1:forces:R:3 job_name=BondOrder-VacuumGB-T1g-Al-Al-33-d-0.00 top_level=BondOrder-VacuumGB solute=Al energy=-482.14316851 stress_kbar_3x3="_JSON [[-17.06575267, -0.00045192, 0.0006136], [-0.00045194, -26.72384105, -1.28651659], [0.00061359, -1.2865166, -18.0123763]]" pbc="T T T"
Ti       4.40396477       5.21379908      34.65294368  F       0.00016177      -0.28499201      -0.45858666
Ti       1.46802936       5.21271724      34.65263992  F      -0.00017501      -0.28255148      -0.45567513
Ti       5.86965707       3.19026688       8.54930393  F       0.00982848       0.17072745       0.94904769
Ti       2.93833118       3.19022554       8.54934732  F      -0.00988667       0.17085822       0.94905735
Ti       0.00675867       6.63243048       9.16858538  F      -0.03168640      -0.20683917       0.13743432
Ti       2.92925894       6.63243737       9.16867217  F       0.03161401      -0.20688830       0.13709745
Ti       4.40403523       1.76591619      10.45279920  F      -0.00009922       0.03630239      -0.50956370
Ti       1.46793541       1.76942356      10.45679148  F       0.00005565       0.03679017      -0.50172181
Ti       1.46796477       4.59742525      10.67276540  F       0.00000299       0.12324199      -0.35232848
Ti       4.40399413       4.59814878      10.67567282  F      -0.00002288       0.12868198      -0.35848901
Ti       5.87111920       6.72985820      11.99047969  F      -0.00773441      -0.10002030       0.01238032
Ti       2.93681034       6.72984442      11.99047969  F       0.00773015      -0.09998467       0.01259086
Ti       2.93910629       2.87645026      12.59557117  F      -0.00087679      -0.06009319       0.11117880
Ti       5.86877040       2.87647093      12.59561457  F       0.00100025      -0.06027984       0.11117409
Ti       4.40395890       5.00642323      13.75489591  F       0.00006047       0.06112323      -0.09045928
Ti       1.46797064       5.00709851      13.75012253  F       0.00001311       0.05728150      -0.08451998
Ti       4.40395890       0.93646789      14.24356023  F      -0.00002916       0.01441178       0.04436232
Ti       1.46794715       0.94092618      14.22893632  F       0.00018716       0.02068656       0.03563367
Ti       2.92948795       3.10604176      15.42236905  F      -0.00139840      -0.03070790      -0.03533786
Ti       0.00651792       3.10606243      15.42241244  F       0.00131137      -0.03082304      -0.03546280
Ti       2.93697475       6.02095595      16.02468329  F       0.00420565       0.00164291      -0.03670714
Ti       5.87095478       6.02095595      16.02468329  F      -0.00416432       0.00164568      -0.03668587
Ti       4.40403523       1.28090682      17.21108613  F      -0.00008607       0.00395920       0.00193687
Ti       1.46801174       1.31641464      17.14855481  F      -0.00000705       0.00694803       0.00836222
Ti       4.40399413       4.11090681      17.67614390  F       0.00001841       0.00280488       0.02420878
Ti       1.46799413       4.13681588      17.71272538  F       0.00000603       0.00993062       0.03057587
Ti       2.91174277       6.25812722      18.85829409  F       0.00010699      -0.00230078       0.01269382
Ti       0.02437467       6.25814101      18.85829409  F      -0.00013181      -0.00232276       0.01278784
Ti       2.90263530       2.35053764      19.44815414  F      -0.00484377      -0.00275512      -0.01206358
Ti       0.03337645       2.35053075      19.44815414  F       0.00502975      -0.00269075      -0.01198562
Ti       1.46812331       4.55592252      20.72590219  F      -0.00010615       0.00394976      -0.00675244
Ti       4.40405872       4.45586944      20.73110952  F      -0.00000584      -0.01838981      -0.00271977
Ti       4.40401762       0.39740780      20.95719433  F       0.00022749       0.00775127      -0.00143368
Al       1.46807634       0.46858882      21.00991852  F      -0.00032022       0.00185123       0.00185741
Ti       0.01479744       2.48237756      22.24553061  F       0.00231756       0.00352078      -0.00093798
Ti       2.92133762       2.48242579      22.24553061  F      -0.00250451       0.00333005      -0.00095728
Ti       5.83907570       5.89434608      22.82814380  F       0.00048867      -0.00925390      -0.00897834
Ti       2.96903587       5.89430473      22.82814380  F      -0.00042066      -0.00920885      -0.00898074
Ti       4.40406459       3.90377213      24.14160544  F       0.00001555      -0.01293944       0.00481623
Ti       1.46804110       3.93214807      24.10997092  F      -0.00011697       0.00031078       0.00188864
Ti       4.40405285       1.07252492      24.35931513  F       0.00003014      -0.00446280      -0.00516354
Ti       1.46804110       1.08036654      24.33987444  F      -0.00000026       0.00545518       0.00594848
Ti       5.86824779       5.85514484      25.65906414  F      -0.00415106      -0.00953543      -0.01778003
Ti       2.93980506       5.85513795      25.65906414  F       0.00423099      -0.00948964      -0.01780587
Ti       2.92406222       2.79384445      26.27144589  F      -0.00142062       0.00660094      -0.00530731
Ti       0.01201998       2.79382378      26.27144589  F       0.00141067       0.00663451      -0.00522497
Ti       4.40402349       0.67282251      27.43194227  F      -0.00007784      -0.01545062       0.00348549
Ti       1.46804110       0.67196117      27.41805607  F      -0.00005624      -0.01429709       0.01427468
Ti       1.46801762       4.73995955      27.90711093  F       0.00001718       0.00070607      -0.01726960
Ti       4.40400000       4.73353052      27.90685057  F       0.00008931      -0.00199446      -0.01203657
Ti       2.93432648       2.58315416      29.08965167  F       0.00421525      -0.03190372      -0.02331865
Ti       0.00172050       2.58316105      29.08965167  F      -0.00428986      -0.03189174      -0.02331350
Ti       2.93601762       6.53857904      29.68827739  F      -0.00283552       0.03111611       0.02328860
Ti       5.87195890       6.53855148      29.68827739  F       0.00303752       0.03137846       0.02326621
Ti       4.40398826       4.38110526      30.87446326  F       0.00005447       0.01554471       0.03672420
Ti       1.46800000       4.38147046      30.87455005  F      -0.00002210       0.01822127       0.03755012
Ti       4.40400587       1.55934655      31.35431851  F      -0.00000203       0.01634851      -0.02393023
Ti       1.46801174       1.56155847      31.35562035  F      -0.00003176       0.01831802      -0.02283605
Ti       2.93420317       6.32375433      32.51294894  F       0.00570824      -0.08618485       0.74441274
Ti       0.00176747       6.32377500      32.51294894  F      -0.00562669      -0.08630879       0.74453751
Ti       5.87072578       3.27923281      33.12359491  F       0.00147123       0.28556352       0.23483908
Ti       2.93729184       3.27924659      33.12363830  F      -0.00148395       0.28526038       0.23471051
Ti       1.46801174       1.15094118      34.44000737  F       0.00007340       0.06295196      -0.76191436
Ti       4.40400000       1.15296704      34.44065828  F      -0.00010571       0.06271038      -0.75587435
