52
Lattice="4.6568 0.0 0.0 0.0 7.770572 0.0 0.0 0.0 41.044546" Properties=species:S:1:pos:R:3:move_mask:L:1:forces:R:3 job_name=BondOrder-VacuumGB-CSL7-Al-Al-24-d-0.00 top_level=BondOrder-VacuumGB solute=Al energy=-388.04168305 stress_kbar_3x3="_JSON [[-20.1675261, -0.20561577, -3.22612541], [-0.20561576, -27.95365586, -0.42459815], [-3.22612541, -0.4245982, -17.77464561]]" pbc="T T T"
Ti       1.81951887       7.39592941       8.22737925  F       1.09053574      -0.15487114       0.81782268
Ti       4.64992656       5.59715855       8.88097260  F      -0.08817450      -0.06548740      -0.00569760
Ti       2.47351986       2.27204532       9.12925105  F      -0.58302979       0.32539300       0.67966961
Ti       4.58307820       0.62359617       9.59806186  F      -0.28506033      -0.38819496       0.22729523
Ti       2.39140185       5.00608999      10.34121441  F      -0.07905011       0.01128495      -0.40707973
Ti       0.05652890       3.33464773      10.53194841  F       0.02276997       0.27599112       0.07106616
Ti       2.34845684       0.00958889      11.16727694  F      -0.04274679       0.17601519      -0.47400259
Ti       0.07493257       6.10308495      11.60329315  F      -0.00124725      -0.02861897      -0.25151673
Ti       2.38906879       2.75972642      12.11606267  F       0.02415501      -0.07996161      -0.20657198
Ti       0.05307821       1.11578420      12.50963882  F      -0.03908545      -0.09009461       0.11101797
Ti       2.40397055       5.56255620      13.12711297  F       0.04340111       0.04236042      -0.04876420
Ti       0.06210774       3.86698630      13.46133871  F      -0.00268431       0.00708732      -0.03346793
Ti       2.39345550       0.56452429      14.09633888  F      -0.00094466      -0.01336451      -0.00239311
Ti       0.08382706       6.62543057      14.41521396  F       0.02373505       0.01741645      -0.04431698
Ti       2.38951119       3.32665958      15.04812086  F       0.02435165      -0.01408522      -0.02200660
Ti       0.09844941       1.67312848      15.44543206  F       0.01604010      -0.04660050      -0.02288219
Ti       2.43951125       6.10392418      15.95409712  F       0.00352281       0.00269526      -0.01613263
Ti       0.02454599       4.40618629      16.39741926  F      -0.00734216       0.02536305      -0.00565045
Ti       2.48626086       1.11999585      17.04419922  F      -0.00597561       0.00329981      -0.01625026
Ti       0.14919456       7.19097281      17.19376554  F       0.01110897      -0.00213005       0.02847359
Ti       2.25095742       3.85837651      17.93425020  F       0.00321639       0.01839613       0.02018495
Ti       0.27594334       2.10036230      18.44164287  F       0.01399479      -0.00467290      -0.00087461
Ti       2.39116435       6.65432933      18.66911175  F       0.00621760      -0.01692565       0.01097288
Ti       4.14737402       4.81492615      19.34133932  F      -0.00579916      -0.00938387      -0.00100430
Al       2.70540056       1.74126086      20.04073839  F      -0.00630132       0.01058446      -0.00260838
Ti       0.37691208       7.64272278      20.04086152  F      -0.00800615      -0.00096950      -0.01259510
Ti       1.26282171       4.81526806      20.73985014  F       0.00033129      -0.00492772       0.00315674
Ti       3.01837477       6.65455468      21.41215980  F      -0.00278361      -0.00770952      -0.00121959
Ti       0.47700068       2.10072752      21.63934136  F      -0.00595128      -0.00775638       0.00623731
Ti       3.15851651       3.85863294      22.14718553  F      -0.00140488       0.01435301      -0.00374884
Ti       0.60292055       7.19145458      22.88767019  F      -0.00603566       0.00195492      -0.00992156
Ti       2.92279395       1.12050871      23.03690816  F       0.00058693      -0.00908526       0.00709329
Ti       0.72734094       4.40655151      23.68368811  F       0.00404501       0.00367524      -0.00214350
Ti       2.96878451       6.10442149      24.12733861  F      -0.00227829       0.00646012       0.00123603
Ti       0.65352600       1.67362580      24.63555218  F      -0.01594598       0.00006328       0.00130786
Ti       3.01928750       3.32720352      25.03319174  F      -0.00677584      -0.01434486       0.00459541
Ti       0.66762679       6.62585019      25.66618073  F      -0.01205506      -0.02341493       0.00721515
Ti       3.01500325       0.56510708      25.98480954  F       0.00864808      -0.00882980      -0.02588244
Ti       0.68991423       3.86735152      26.62001493  F       0.00409950       0.03176892       0.03411272
Ti       3.00461858       5.56299912      26.95424067  F      -0.02947789       0.00577432      -0.00358968
Ti       0.69892980       1.11609503      27.57150960  F       0.08662912       0.02181065      -0.01689379
Ti       3.01979975       2.76006055      27.96516784  F      -0.01847716      -0.00896977       0.01976949
Ti       0.67689382       6.10324037      28.47806048  F       0.01477173      -0.07528229       0.10409805
Ti       3.06011833       0.00983754      28.91378939  F       0.01585193       0.00976000       0.22584083
Ti       0.69541391       3.33454671      29.54944627  F      -0.03467652      -0.00490860       0.28064505
Ti       3.01714538       5.00626095      29.74022132  F       0.08197521       0.24908685       0.45191118
Ti       0.82573446       0.62351847      30.48329178  F      -0.17931010       0.14065515       0.09164205
Ti       2.93507393       2.27191322      30.95206154  F       0.36150706       0.16533230      -0.20568494
Ti       0.75879296       5.59726734      31.20042209  F      -0.09926473      -0.22183853       0.26995197
Ti       3.58948007       7.39590610      31.85405648  F      -1.32831088      -0.16902225      -0.11327552
Ti       0.37593881       2.79745254      32.56289579  F       0.32089803      -0.16148776      -1.27142485
Ti       2.70413391       4.57029300      32.56297788  F       0.71580239       0.06635663      -0.24771610
