64
Lattice="5.871999 0.0 0.0 0.0 6.890708 0.0 0.0 0.0 43.401158" Properties=species:S:1:pos:R:3:move_mask:L:1:forces:R:3 job_name=BondOrder-VacuumGB-T1m-Al-Al-43-d-3.62 top_level=BondOrder-VacuumGB solute=Al energy=-481.99603352 stress_kbar_3x3="_JSON [[-17.59006063, -0.00037616, -0.00023478], [-0.00037619, -25.75543092, 0.60445824], [-0.00023481, 0.60445823, -18.35172289]]" pbc="T T T"
Ti       2.93603473       0.09964653      34.53976997  F       0.00007156      -0.28909281      -0.20088997
Ti       2.93602299       2.93794983      34.53998697  F       0.00004020       0.12353732      -0.98803089
Ti       0.00002936       0.10145189      34.54154941  F      -0.00004128      -0.29095221      -0.20307612
Ti       0.00001762       2.93902478      34.54280805  F      -0.00000955       0.13309238      -0.97947357
Ti       4.40528522       5.02992054       8.55137356  F      -0.00575162      -0.01485727       0.93171540
Ti       1.46676076       5.02993432       8.55133016  F       0.00577622      -0.01497059       0.93197929
Ti       4.40200277       1.32030100       9.16884184  F       0.00686501      -0.26553409       0.15342711
Ti       1.47006669       1.32029411       9.16888524  F      -0.00685968      -0.26562684       0.15303360
Ti       2.93602886       3.41248532      10.35061197  F      -0.00003881       0.14027372      -0.25763012
Ti       0.00002936       3.41310549      10.35117618  F      -0.00001815       0.13722662      -0.25913898
Ti       2.93602299       6.23007515      10.75823564  F      -0.00003023       0.13336358      -0.55345398
Ti       0.00001762       6.23025431      10.75940748  F       0.00010832       0.14062006      -0.55374485
Ti       1.46788231       1.49236198      11.98067266  F      -0.00325288      -0.02437403      -0.00686028
Ti       4.40415779       1.49234130      11.98067266  F       0.00327218      -0.02418662      -0.00701712
Ti       1.46676076       4.44000703      12.58438277  F       0.00201074      -0.00539965       0.06396887
Ti       4.40532632       4.44000703      12.58433937  F      -0.00208068      -0.00551008       0.06423054
Ti       2.93601712       6.59495881      13.74310688  F       0.00006216       0.03487751      -0.09735745
Ti       0.00002936       6.59668149      13.74323709  F      -0.00008191       0.04751692      -0.09872000
Ti       2.93599950       2.52076569      14.24452046  F       0.00019720       0.01518681       0.04961742
Ti       0.00002936       2.52053830      14.25302709  F      -0.00019583       0.01400455       0.04753134
Ti       4.40291293       4.67719209      15.41596112  F       0.00150438      -0.03483290      -0.01049195
Ti       1.46906845       4.67717142      15.41596112  F      -0.00142090      -0.03473914      -0.01034794
Ti       4.40782779       0.72684566      16.01784838  F      -0.00002331      -0.00080035      -0.03077971
Ti       1.46415946       0.72684566      16.01784838  F       0.00012465      -0.00072568      -0.03072885
Ti       5.87196964       2.88117039      17.23859275  F       0.00014205      -0.01344899      -0.00263250
Ti       2.93602299       2.87580253      17.21580714  F      -0.00034515      -0.01232110       0.00024536
Ti       0.00000000       5.70437615      17.66201445  F      -0.00017093       0.00257969       0.03142427
Ti       2.93597014       5.69974559      17.64604282  F       0.00020665       0.01102264       0.03569993
Ti       1.46332564       0.90358543      18.83710080  F       0.00044666      -0.00865219      -0.01456201
Ti       4.40864987       0.90361299      18.83714420  F      -0.00040233      -0.00886163      -0.01487175
Ti       1.49464101       4.07123701      19.45044596  F      -0.00696702       0.00489175      -0.01079450
Ti       4.37735212       4.07120944      19.45048936  F       0.00699521       0.00517691      -0.01120469
Ti       2.93600537       2.10140409      20.87634761  F      -0.00010893       0.01888157       0.01166549
Ti       5.87198726       2.11692886      20.84418735  F       0.00010307       0.01785461       0.02447495
Ti       2.93599950       6.15375367      20.82517764  F       0.00003494       0.00109567       0.01117667
Ti       0.00001762       6.14180518      20.90555659  F      -0.00005398       0.00329099      -0.00482353
Ti       4.37113954       4.10627626      22.29252739  F       0.01968557      -0.01152308       0.01278949
Ti       1.50085946       4.10626937      22.29257080  F      -0.01960489      -0.01152499       0.01229395
Ti       4.46115142       0.92841954      22.89102936  F      -0.00530012      -0.00660846      -0.00195857
Ti       1.41086520       0.92842643      22.89107276  F       0.00534186      -0.00654853      -0.00248125
Ti       2.93599363       5.78452886      24.01156046  F       0.00012692       0.01688575       0.00799888
Ti       0.00002349       5.66272871      24.04758342  F      -0.00010186       0.00917974       0.00165389
Ti       2.93600537       2.93688177      24.50195014  F       0.00009446      -0.01042599      -0.00590533
Al       0.00004698       2.88546330      24.46367032  F      -0.00041205       0.00714480      -0.01689210
Ti       4.42661232       0.75809502      25.67577786  F      -0.00755651       0.00764026      -0.00755555
Ti       1.44538668       0.75812948      25.67573446  F       0.00780205       0.00728275      -0.00708152
Ti       4.38760463       4.66954340      26.24637289  F       0.01503166       0.02029219      -0.02282594
Ti       1.48440612       4.66953651      26.24637289  F      -0.01484671       0.02041790      -0.02297368
Ti       0.00004110       2.51963562      27.41711912  F      -0.00014564      -0.02316075       0.02060430
Ti       2.93601124       2.52084838      27.48018101  F       0.00003367      -0.03393457       0.02379081
Ti       0.00003523       6.59441445      27.89318643  F      -0.00015631       0.01773712      -0.00971409
Ti       2.93604060       6.58297587      27.92009514  F      -0.00012149       0.03470877      -0.02719473
Ti       1.45787055       4.43786402      29.08671827  F      -0.00066569      -0.02539637      -0.00971726
Ti       4.41412845       4.43786402      29.08676167  F       0.00092930      -0.02538354      -0.00984103
Ti       1.45762980       1.48026189      29.68856213  F       0.00364077       0.01339419      -0.00662106
Ti       4.41443379       1.48026189      29.68856213  F      -0.00362670       0.01335694      -0.00679452
Ti       2.93602299       6.22513451      30.92779539  F       0.00004576       0.00510166       0.03876736
Ti       0.00005285       6.22794592      30.91425423  F      -0.00020324       0.01230602       0.03137703
Ti       2.93601124       3.40580823      31.31462992  F      -0.00000257       0.00676398      -0.05389439
Ti       0.00005285       3.40788233      31.32600102  F      -0.00010117       0.00668619      -0.05761577
Ti       4.40254299       1.31997024      32.50738054  F       0.00691637      -0.05800073       0.69224498
Ti       1.46950885       1.31995646      32.50742394  F      -0.00685460      -0.05793275       0.69197605
Ti       4.40649485       5.02783955      33.12380719  F      -0.01156696       0.20098999       0.28604927
Ti       1.46556287       5.02785333      33.12385059  F       0.01151010       0.20094438       0.28596132
