100
Lattice="4.4265 -2.555641 0.0 3.767997 6.526363 -0.031456 0.0 0.0 61.781652" Properties=species:S:1:pos:R:3:move_mask:L:1:forces:R:3 job_name=BondOrder-VacuumGB-CSL13-Al-Al-62-d-5.77 top_level=BondOrder-VacuumGB solute=Al energy=-757.5138725 stress_kbar_3x3="_JSON [[-35.16238621, -2.5357167, 0.86219961], [-2.53571669, -37.06485951, -0.2837187], [0.86219959, -0.2837187, -23.55988367]]" pbc="T T T"
Ti       2.45076723      -0.95091804       8.05829512  F       0.14396147      -0.00786483       1.71624411
Ti       5.74597856       1.49843044       8.04083386  F      -0.08165936       0.12532521       1.72349736
Ti       4.98288217      -0.86346806       9.38983464  F       0.44070049       0.00223596      -0.02774465
Ti       4.55141532       3.73840148       9.37076373  F      -0.23323751       0.37405963      -0.01042667
Ti       7.07505665       3.81707315      10.60195748  F      -0.14184936      -0.06935002      -1.02067215
Ti       3.78467763       1.36477810      10.61688625  F       0.02730373      -0.15800478      -1.01526479
Ti       1.64553842      -0.49093549      10.90409934  F       0.27251144      -0.20974385      -0.15547793
Ti       2.11391427       3.59086141      10.89108502  F      -0.32427669       0.13583850      -0.16814952
Ti       4.73138872       3.59698896      12.17652768  F       0.00634072      -0.13264759      -0.32116680
Ti       4.76596292      -0.77509927      12.19306325  F      -0.11767623      -0.04739630      -0.33049885
Ti       3.41357512       5.81872487      13.22345004  F      -0.08760369       0.02265452       0.03979760
Ti       2.91868341       1.75114048      13.23807465  F       0.07373566      -0.07010033       0.04971640
Ti       2.36833978      -0.99455838      13.78115042  F       0.04454498      -0.02886079       0.02135762
Ti       5.73817740       1.41088662      13.76690477  F      -0.05477045       0.02427105       0.01331659
Ti       4.21997161       3.72773051      14.95501084  F      -0.00897361       0.01508412      -0.02400029
Ti       5.12757779      -1.14661910      14.97184887  F       0.01316974       0.00080341      -0.01962371
Ti       6.88569837       3.53058835      15.82121949  F      -0.00910139      -0.00575818       0.00844540
Ti       3.62823030       1.06689755      15.84168112  F      -0.01061330      -0.00223106      -0.00305223
Ti       6.33225251       0.84030986      16.63241911  F      -0.00568505      -0.00815239       0.00335580
Ti       1.57049813      -0.76023244      16.64622766  F       0.00011621      -0.00303864      -0.00461225
Ti       4.76218285       3.12601062      17.67735079  F      -0.00595768      -0.00996875       0.00839723
Ti       4.32164761      -0.97621967      17.69328461  F       0.00106653      -0.00971149       0.01761310
Ti       3.12595802       5.36399305      18.47046211  F      -0.01453784      -0.00367415      -0.00847948
Ti       2.65450382       1.28019685      18.48713521  F      -0.01320705      -0.01525527      -0.01478653
Ti       5.85000985       5.14824844      19.47043534  F      -0.00511771      -0.00878371      -0.00944671
Ti       5.52445564       0.98989326      19.47953609  F      -0.01988311      -0.00498679      -0.00817339
Ti       0.54217678       0.86362509      20.35953509  F       0.00939908       0.00580730      -0.02166302
Ti       3.79592303       3.32307756      20.33823160  F       0.00550729       0.00272881      -0.01692643
Ti       3.23341121       0.62072539      21.18755128  F      -0.00868615      -0.00650834      -0.00054678
Ti       6.67476487       2.98585519      21.17070728  F      -0.00707256      -0.01270582       0.00331554
Ti       5.02512218       5.33466614      22.32307697  F      -0.00189150      -0.00898745      -0.00494824
Ti       6.07015680       0.38133765      22.33855448  F      -0.01060425       0.00152736      -0.00463267
Ti       4.47447479       2.59847971      22.94081300  F       0.01575110      -0.00763394       0.00678961
Ti       3.96936288      -1.47034824      22.95583413  F      -0.00682959       0.00211711      -0.01378925
Ti       7.06616093       2.51537020      23.93570227  F      -0.01838375      -0.00407812       0.00548439
Ti       2.59824955       0.73846846      23.94409830  F       0.01252818       0.00134268       0.01905528
Ti       5.70113802       4.78437660      25.22467458  F       0.01045228      -0.02536298       0.01080677
Ti       5.23351238       0.69743888      25.23158954  F      -0.02293202       0.01284215       0.02774902
Ti       3.55132496       2.92145086      25.53633977  F       0.01540815       0.00304628       0.01182053
Ti       0.27308688       0.46520058      25.55175175  F      -0.00212831       0.02897490      -0.00222226
Ti       2.78118711       0.52452919      26.75858233  F       0.02820016       0.04594358      -0.03350986
Ti       6.76874341       2.58344565      26.73873978  F       0.00075778      -0.03313161      -0.02604063
Ti       4.85509890       5.22010451      28.11772927  F      -0.02781660      -0.05012801       0.00032385
Ti       1.59030938       2.74549088      28.13206750  F      -0.02406081      -0.01881815      -0.01624346
Ti       4.33280642       2.40713935      28.17137006  F      -0.00564914       0.01093056      -0.00732996
Ti       3.84228354      -1.66103559      28.19037419  F       0.00765499       0.02523673       0.00635198
Ti       6.77898023       2.52947528      29.53212378  F       0.01366136       0.03227305       0.00558138
Ti       2.71350814       0.51151459      29.55945647  F       0.02553959       0.03381772       0.00860634
Ti       3.49660562       2.85651383      30.78979723  F      -0.02040236       0.02767144      -0.01568915
Ti       4.65926720      -2.14567833      30.82639699  F       0.03729321      -0.00617505       0.02761512
Ti       5.65788529       4.72689015      30.98018066  F      -0.03095041      -0.00270969      -0.01195313
Ti       5.16428116       0.64926884      31.03647970  F       0.00966392      -0.03599711      -0.00633235
Ti       2.57573616       0.59979390      32.41089526  F      -0.04606063       0.01043652       0.00939046
Ti       6.92023677       2.41951805      32.34143817  F       0.06395597      -0.02605030      -0.03080216
Ti       3.83835607      -1.68068794      33.41477170  F       0.04296623      -0.00338111      -0.01186122
Ti       4.38536957       2.51830964      33.33549569  F      -0.02226468       0.02319678       0.01785526
Ti       5.88708976       0.27329743      33.91059805  F       0.02500753      -0.01315613      -0.01719726
Ti       4.89077901       5.19824282      33.89969330  F      -0.02497880       0.01962039      -0.01481065
Ti       3.25869490       0.29775285      35.16379927  F      -0.01642436      -0.00859682      -0.00077916
Ti       6.63626419       2.80064964      35.14208031  F      -0.00406867       0.04176456       0.00619938
Ti       0.61827078       0.73174294      35.89929769  F       0.02146015      -0.01260378       0.05899490
Ti       3.72306720       2.98633339      35.94533733  F      -0.00030839      -0.00767179       0.01183258
Al       5.46988843       0.78878938      36.82755276  F       0.06288413       0.00557519      -0.01432395
Ti       5.71273261       4.95583476      36.74037764  F       0.01237695       0.03159632      -0.01841362
Ti       3.10790285       5.03982364      37.79969077  F      -0.02952646      -0.00470756      -0.00332727
Ti       2.73356946       1.08381540      37.81829406  F      -0.04532764       0.02517644      -0.00496157
Ti       4.82690923       2.95682570      38.54618657  F       0.01840343       0.01315238       0.02359802
Ti       4.23816987      -1.24467420      38.54264773  F       0.01479823      -0.01198792      -0.03366613
Ti       6.23078648       0.63557432      39.60354205  F      -0.00907387       0.01578076       0.01330576
Ti       5.28680702       5.59451694      39.58777156  F       0.02306967      -0.01836512      -0.01883348
Ti       3.56931560       0.82853639      40.46228336  F       0.03459800       0.02619199       0.02871904
Ti       6.86595620       3.32625975      40.40405371  F      -0.03133403       0.01516436      -0.00905504
Ti       4.15580560       3.54635247      41.24265771  F      -0.00856383      -0.04279650      -0.01701183
Ti       5.09967358      -1.34132752      41.28300705  F      -0.00409099       0.02926373       0.02597869
Ti       2.30021115      -1.16345878      42.47039861  F       0.01692237       0.01028210      -0.00381036
Ti       5.70064568       1.25221041      42.42874465  F      -0.00966902       0.01278191      -0.02176242
Ti       3.37082522       5.64158529      43.02079076  F       0.00127185       0.00859637      -0.00990027
Ti       2.86356201       1.59189904      43.03648856  F       0.02277189      -0.00395468      -0.01738082
Ti       4.72080945       3.44481086      44.02708602  F       0.00816799       0.01396674       0.03084121
Ti       4.69667226      -0.88889891      44.03662405  F      -0.02288760       0.01748746       0.03901571
Ti       2.07109553       3.49012873      45.30472184  F       0.02100134      -0.00559135       0.01717565
Ti       1.60621303      -0.59586052      45.31613771  F       0.03468573      -0.00354490       0.01232926
Ti       7.04043688       3.71440007      45.62326854  F      -0.04349353       0.00797628      -0.00736806
Ti       3.75172567       1.25641702      45.64519572  F      -0.00729189      -0.04511096       0.00385896
Ti       4.50253603       3.66790854      46.82754450  F       0.03613102       0.01148748      -0.01833726
Ti       4.97617927      -0.95475251      46.84301921  F       0.00185897       0.02705153      -0.01735765
Ti       5.72918504       1.44541218      48.15094468  F       0.00846493      -0.03795565      -0.01200200
Ti       2.43444201      -1.00600794      48.17236647  F      -0.06710922       0.01142341      -0.02252248
Ti       3.44055210       5.85682252      48.29669986  F       0.04794869      -0.04229708       0.00380901
Ti       2.97158649       1.77970832      48.31606200  F      -0.05087619      -0.00557867      -0.01215876
Ti       4.61202121       3.65558547      49.61334237  F       0.00611983       0.04869140       0.30886980
Ti       4.89853928      -0.86074437      49.62579594  F       0.04563887       0.02548034       0.32873496
Ti       2.10997348       3.57080777      50.98875530  F       0.17015856      -0.00258006       0.60804611
Ti       1.64695014      -0.51268712      51.00164103  F      -0.07590867       0.14978763       0.61191893
Ti       7.08811003       3.79134998      50.99789460  F       0.46730726      -0.08574100       0.18046873
Ti       3.77755757       1.35721973      51.01514752  F      -0.32401343       0.32706962       0.18458388
Ti       4.60901959       3.68967181      52.37548307  F       0.15832343      -0.32037365       0.09470022
Ti       4.92042574      -0.84053117      52.39219779  F      -0.35426078      -0.04649025       0.08128777
Ti       3.45646331       5.91019353      53.69761109  F       0.05311161      -0.10720990      -1.38423545
Ti       2.99231981       1.83080000      53.71375875  F      -0.11558253      -0.00002340      -1.39147334
