52
Lattice="4.6568 0.0 0.0 0.0 7.770572 0.0 0.0 0.0 41.044546" Properties=species:S:1:pos:R:3:move_mask:L:1:forces:R:3 job_name=BondOrder-VacuumGB-CSL7-Al-Al-28-d-1.62 top_level=BondOrder-VacuumGB solute=Al energy=-388.25350419 stress_kbar_3x3="_JSON [[-22.19507295, -0.21913708, -2.37715565], [-0.21913707, -26.03521381, 0.56088381], [-2.37715567, 0.56088382, -19.29182394]]" pbc="T T T"
Ti       1.81416820       7.40718897       9.18568731  F       1.29480102      -0.15866927       0.15712828
Ti       4.63769315       5.60900868       9.84954179  F       0.08832694      -0.22999479      -0.26575814
Ti       2.46091390       2.28320386      10.09461878  F      -0.36785197       0.16718054       0.19306170
Ti       4.57149674       0.63344926      10.56835493  F       0.17806521       0.15163095      -0.09588828
Ti       2.36563577       5.02013919      11.31027614  F      -0.06962233       0.25061813      -0.45396898
Ti       0.03255569       3.34560423      11.49501764  F       0.02355183      -0.00201895      -0.28805395
Ti       2.31735873       0.02048323      12.13572300  F      -0.01137754       0.01210831      -0.23041875
Ti       0.04007176       6.11777911      12.57773172  F      -0.01399337      -0.06932424      -0.09618758
Ti       2.35102273       2.77244684      13.07666922  F       0.02704732      -0.01046830      -0.00556891
Ti       0.01730467       1.12970907      13.48633484  F      -0.07903343       0.02574266       0.01058938
Ti       2.36199416       5.57981464      14.10105900  F       0.03404525       0.00239743       0.00343804
Ti       0.02265068       3.88395723      14.42859448  F       0.00252827       0.03449556      -0.02804409
Ti       2.35945154       0.57313408      15.07151625  F      -0.00942760      -0.00546212       0.02202768
Ti       0.03670490       6.65110454      15.40389498  F       0.01862957      -0.02411316      -0.00441260
Ti       2.35268056       3.33356762      16.01024606  F       0.00961967      -0.01403968      -0.00289026
Ti       0.04332221       1.68848313      16.43078848  F       0.01634720       0.00395810      -0.00897323
Ti       2.38769969       6.11183462      16.92968493  F       0.00947032      -0.00023396      -0.00277062
Ti       0.00605850       4.43612631      17.36582428  F      -0.00011933      -0.00550378       0.00031530
Ti       2.40659699       1.11116071      18.01876092  F       0.00621610      -0.00472549      -0.00718477
Ti       0.05299438       7.21792115      18.19681216  F      -0.00176873      -0.00296819       0.00299197
Ti       2.28833755       3.78360029      18.90782683  F      -0.01368736      -0.00761707      -0.00242175
Ti       0.22489084       2.14299166      19.45064095  F      -0.01062612      -0.00431435      -0.00627178
Ti       2.32042756       6.61197971      19.64404285  F      -0.00676782       0.00215099      -0.00166681
Ti       4.14824950       4.80463014      20.27580050  F       0.00632832      -0.00268374       0.00697084
Ti       2.80362644       1.60562552      21.03688952  F      -0.00380691      -0.01836112      -0.00208191
Ti       0.40529993       7.59141369      21.04834095  F       0.00985823      -0.01018369       0.00081818
Ti       1.27103165       4.74888406      21.65218831  F       0.00063858      -0.00750496       0.00418699
Ti       3.11515239       6.46816974      22.37748648  F      -0.00494136       0.01162947      -0.01384853
Al       0.63239344       2.16858015      22.63097760  F      -0.00792605      -0.01268355       0.00217909
Ti       3.07110838       3.72075968      23.14436278  F       0.00752115      -0.00468359      -0.01037549
Ti       0.68207218       7.17568809      23.78868006  F      -0.01266103       0.00437144      -0.01713910
Ti       2.99100210       1.07303052      23.93184344  F       0.01964942       0.00301634       0.03356797
Ti       0.70087168       4.41893780      24.63345891  F       0.00949592       0.01021871       0.00756601
Ti       3.00587126       6.10611548      25.07468778  F       0.00397441       0.00206116       0.01454932
Ti       0.67665632       1.69789329      25.56652457  F      -0.00350034      -0.04261300       0.01663691
Ti       3.02060538       3.34157131      26.01452579  F      -0.02811203      -0.01702563       0.01439801
Ti       0.71190364       6.66321110      26.59333598  F      -0.02010313       0.01651264       0.03954369
Ti       3.04711188       0.58079586      26.92949081  F      -0.00142323      -0.00082279       0.00251700
Ti       0.71058111       3.89761013      27.58152447  F       0.00262116      -0.00626551       0.04192562
Ti       3.04171000       5.59381721      27.91176888  F      -0.05132024       0.02793634       0.04612314
Ti       0.72891959       1.13903376      28.51093717  F       0.03664008      -0.08391444      -0.10600902
Ti       3.05386890       2.78167051      28.94137132  F      -0.03143269      -0.07385505       0.21983170
Ti       0.70561696       6.12921739      29.42754397  F       0.01553173      -0.02604620       0.24400248
Ti       3.08768658       0.02875889      29.86236989  F       0.02049823       0.18491072       0.49538575
Ti       0.71489331       3.35689487      30.51070954  F      -0.00588308       0.27823019      -0.07910048
Ti       3.04172862       5.03025647      30.69742118  F       0.06005247       0.01368634       0.38471365
Ti       0.83580712       0.63991437      31.42694694  F       0.28405506      -0.37641685      -0.24306922
Ti       2.94436425       2.29028285      31.91110840  F       0.59373167       0.30536970      -0.67380324
Ti       0.77218126       5.61478221      32.15959208  F       0.09714899      -0.05937229      -0.00561537
Ti       3.59334521       7.40794272      32.81417050  F      -1.07109895      -0.12640673      -0.85507927
Ti       0.37420648       2.80762422       8.48222483  F      -0.32851866      -0.14470434       1.27788951
Ti       2.70420376       4.58285025       8.48230692  F      -0.72139082       0.04477110       0.26424390
