64
Lattice="5.872 0.0 0.0 0.0 6.890708 0.0 0.0 0.0 43.394398" Properties=species:S:1:pos:R:3:move_mask:L:1:forces:R:3 job_name=BondOrder-VacuumGB-T1g-V-V-33-d-0.00 top_level=BondOrder-VacuumGB solute=V energy=-486.15060759 stress_kbar_3x3="_JSON [[-17.93171261, 0.00032887, 0.0007646], [0.0003289, -28.70830816, 1.87528251], [0.00076458, 1.87528249, -18.8793747]]" pbc="T T T"
Ti       4.40415267       5.21490849      34.65268331  F      -0.00057437      -0.27714806      -0.46172937
Ti       1.46789430       5.21516344      34.65355120  F       0.00038940      -0.28018202      -0.46581178
Ti       0.00098650       3.18984655       8.55386034  F      -0.00344196       0.16082009       0.97165052
Ti       2.93506048       3.18989478       8.55373016  F       0.00324739       0.16022338       0.97244379
Ti       0.00039930       6.63136242       9.17639637  F      -0.00133261      -0.20163968       0.15279574
Ti       2.93557134       6.63125906       9.17630958  F       0.00136715      -0.20135097       0.15238391
Ti       4.40393541       1.76947180      10.46464587  F      -0.00032662       0.04156648      -0.50905117
Ti       1.46815267       1.76930642      10.46876833  F       0.00027823       0.03795448      -0.52050709
Ti       1.46791779       4.59395234      10.68344042  F       0.00075056       0.12780349      -0.34794040
Ti       4.40388256       4.59542006      10.68582711  F      -0.00057983       0.12735432      -0.35860783
Ti       5.87049677       6.72849384      11.99989627  F       0.00021487      -0.10283842       0.01021392
Ti       2.93741515       6.72850762      11.99976609  F      -0.00002098      -0.10331378       0.01081139
Ti       2.93612331       2.87547178      12.61145352  F       0.00143215      -0.07720325       0.11159662
Ti       5.87183558       2.87547867      12.61145352  F      -0.00125816      -0.07731930       0.11133035
Ti       4.40402349       5.00730524      13.76869533  F       0.00002138       0.05843649      -0.08524522
Ti       1.46798238       5.00657482      13.76978019  F      -0.00010721       0.05309981      -0.08690973
Ti       4.40394715       0.93506908      14.25445222  F       0.00030397       0.00222252       0.04024431
Ti       1.46794715       0.93903812      14.25115425  F      -0.00009788      -0.00640683       0.03821333
Ti       2.93955256       3.09259799      15.44389267  F       0.00721576      -0.04507262      -0.03685871
Ti       5.86844157       3.09268067      15.44389267  F      -0.00719760      -0.04535572      -0.03658826
Ti       2.93392718       6.01061988      16.03505455  F       0.00564655      -0.01158246      -0.04779636
Ti       0.00207869       6.01059232      16.03518474  F      -0.00558366      -0.01154811      -0.04759638
Ti       4.40399413       1.26318392      17.23269654  F       0.00013746      -0.02711041       0.01566877
Ti       1.46807046       1.27648988      17.21056540  F      -0.00020598      -0.01415675       0.01085691
Ti       4.40403523       4.09277047      17.69489028  F       0.00029791      -0.00924264       0.01592362
Ti       1.46798238       4.08485305      17.71029529  F      -0.00042068      -0.00731782       0.02557133
Ti       2.88127296       6.20195417      18.87934037  F       0.01003147      -0.02607946      -0.01088490
Ti       0.05477402       6.20205753      18.87968753  F      -0.01030097      -0.02621227      -0.01077214
Ti       2.91691013       2.34536961      19.43635086  F      -0.01506853       0.00973919      -0.01895589
Ti       0.01912510       2.34526625      19.43626408  F       0.01511117       0.00988741      -0.01879687
Ti       1.46794715       4.48680183      20.81073824  F       0.00030984      -0.00960128      -0.00821858
Ti       4.40397064       4.40704188      20.82041519  F      -0.00000185      -0.03024686      -0.00618106
Ti       4.40357134       0.38204152      20.87639396  F       0.00037043      -0.00367890      -0.02478604
V        1.46851086       0.49464947      20.86133611  F      -0.00010086      -0.02006295       0.01339270
Ti       0.02923082       2.32294036      22.23889127  F       0.01262278       0.01266021       0.01965745
Ti       2.90689837       2.32311951      22.23902145  F      -0.01282476       0.01236986       0.01960788
Ti       0.05765717       6.06551815      22.79729038  F       0.00780910      -0.00113791       0.00871539
Ti       2.87848963       6.06532521      22.79768093  F      -0.00803924      -0.00125021       0.00891699
Ti       4.40417029       3.94715603      24.03489861  F      -0.00038074      -0.00314698      -0.00229312
Ti       1.46791192       3.94759014      24.00361125  F       0.00017119       0.02783774       0.00924891
Ti       4.40407046       1.09983279      24.40709237  F      -0.00008106      -0.01489024      -0.03627088
Ti       1.46807634       1.11600529      24.42570856  F       0.00007559       0.00537767       0.02348853
Ti       0.00477981       5.82984216      25.65077581  F      -0.01500426      -0.00164119      -0.02301408
Ti       2.93126717       5.82985594      25.65099278  F       0.01501393      -0.00185629      -0.02368035
Ti       2.93560070       2.87431414      26.23525496  F       0.00526844       0.01909324       0.00624271
Ti       0.00046389       2.87438304      26.23525496  F      -0.00525937       0.01888457       0.00616667
Ti       4.40402936       0.70223205      27.40529811  F      -0.00023121      -0.00611891       0.02365403
Ti       1.46800587       0.70405120      27.40712068  F       0.00018682       0.00622187       0.02334414
Ti       1.46804110       4.76206494      27.91813311  F       0.00003603       0.00745272      -0.01117960
Ti       4.40402349       4.76319501      27.91318615  F      -0.00002018       0.01309599      -0.02089199
Ti       2.93819026       2.58446340      29.08114637  F      -0.01139807      -0.00811677      -0.02288812
Ti       5.86990957       2.58443583      29.08118976  F       0.01129966      -0.00768857      -0.02301635
Ti       2.93840752       6.55688076      29.68163805  F      -0.01142231       0.05384728       0.02304441
Ti       5.86961010       6.55684631      29.68159465  F       0.01146507       0.05393016       0.02309564
Ti       4.40396477       4.38323448      30.86834465  F      -0.00009612       0.02734572       0.03422340
Ti       1.46801174       4.38221466      30.87198978  F       0.00017624       0.03020660       0.02262650
Ti       4.40402936       1.56558953      31.35353741  F      -0.00036801       0.01127150      -0.02639989
Ti       1.46807046       1.56390820      31.34893761  F       0.00026302       0.01988884      -0.01478751
Ti       2.93570640       6.32193518      32.50939060  F       0.00166336      -0.07098279       0.75239433
Ti       0.00035819       6.32196963      32.50926042  F      -0.00172896      -0.07099038       0.75288980
Ti       0.00024662       3.28130691      33.12259684  F       0.00031500       0.28731899       0.23066993
Ti       2.93568291       3.28129313      33.12251005  F      -0.00015676       0.28773896       0.23099501
Ti       1.46789430       1.14875682      34.44213369  F       0.00002900       0.05936015      -0.78156367
Ti       4.40395302       1.15006606      34.44330534  F       0.00010992       0.05948107      -0.78285558
