52
Lattice="4.6568 0.0 0.0 0.0 7.770572 0.0 0.0 0.0 41.044546" Properties=species:S:1:pos:R:3:move_mask:L:1:forces:R:3 job_name=BondOrder-VacuumGB-CSL7-V-V-37-d-5.94 top_level=BondOrder-VacuumGB solute=V energy=-392.10591227 stress_kbar_3x3="_JSON [[-24.25433884, -0.20811414, -0.97943885], [-0.20811416, -27.56222529, -0.35668435], [-0.97943884, -0.35668436, -20.70828386]]" pbc="T T T"
Ti       1.82023601       7.39369926       8.21087934  F       1.06051686      -0.12679451       0.85267095
Ti       4.63288268       5.59792784       8.86964430  F      -0.10007847      -0.08134606       0.02560081
Ti       2.45417551       2.27436872       9.12403840  F      -0.58913357       0.30355858       0.66338601
Ti       4.56541961       0.62163022       9.58156195  F      -0.30439795      -0.37360744       0.25795570
Ti       2.35927458       5.01184022      10.33501668  F      -0.07808571       0.00862069      -0.39259649
Ti       0.02324209       3.33595318      10.52189250  F       0.02177573       0.28301507       0.08349840
Ti       2.30878090       0.01311673      11.15800087  F      -0.03545533       0.17461214      -0.46612913
Ti       0.02930524       6.10532288      11.60161033  F      -0.00768785      -0.02880144      -0.23810880
Ti       2.34138782       2.76687534      12.11318955  F       0.01740999      -0.08146230      -0.19898059
Ti       0.00462886       1.11771908      12.50766868  F      -0.04430949      -0.08463085       0.10239620
Ti       2.34587231       5.57012473      13.13051967  F       0.03823896       0.03487702      -0.04197937
Ti       0.00825185       3.87324161      13.46486854  F      -0.00104149       0.00798494      -0.02942852
Ti       2.33582294       0.56666896      14.09650306  F      -0.00141190      -0.00729367      -0.01121847
Ti       0.01659218       6.64095618      14.43146760  F       0.02768686       0.02283017      -0.03864174
Ti       2.33259112       3.32317059      15.05243053  F       0.02387281      -0.01722803      -0.02397225
Ti       0.01129274       1.67347039      15.45019323  F       0.00062029      -0.04171501      -0.02399615
Ti       2.35744446       6.10640299      15.96189558  F      -0.00317350      -0.00648238      -0.02369390
Ti       4.63780026       4.42645972      16.40226252  F      -0.01475179       0.01599771      -0.00609203
Ti       2.35109724       1.10265194      17.04029998  F      -0.00084686       0.01248553      -0.02513602
Ti       0.02679057       7.19955929      17.22894072  F       0.00683123      -0.00340926       0.01793497
Ti       2.23545493       3.81558397      17.97389923  F       0.00218193       0.00210255       0.01489155
Ti       0.12713530       2.16323400      18.44562420  F       0.00524450       0.00425495       0.00033843
Ti       2.29996558       6.60992828      18.69086536  F      -0.00425290      -0.00839619       0.02144904
Ti       4.14288487       4.81460756      19.34913779  F       0.00587219      -0.01153897       0.01310743
Ti       2.69896952       1.63870485      20.06396960  F       0.00066052      -0.02233987       0.00308498
Ti       0.37542656       7.64262953      20.06257408  F      -0.00599105      -0.00713872       0.00023988
Ti       1.26530378       4.80958777      20.76751416  F      -0.01354401      -0.00721879      -0.01276646
Ti       3.10940124       6.59761193      21.43571937  F       0.00639247       0.00306720      -0.00503098
Ti       0.61937303       2.16634223      21.68182247  F      -0.00761545       0.00249088       0.00172141
Ti       3.17074992       3.81024559      22.14661091  F       0.00436904       0.00453940      -0.00172785
Ti       0.71963393       7.19536318      22.87515160  F      -0.00043234      -0.01073973      -0.00985344
Ti       3.04602219       1.08909229      23.08644892  F       0.00220665       0.00535782       0.00732722
Ti       0.77898950       4.42773409      23.70847902  F       0.00603256      -0.00797359       0.00413216
Ti       3.05162432       6.11913896      24.16702868  F       0.00092648       0.00472509       0.02066909
Ti       0.74153020       1.65648392      24.68525712  F      -0.00119604       0.00126690       0.01047827
Ti       3.07716687       3.28460524      25.05543788  F      -0.01647668      -0.00956416       0.01405408
Ti       0.73969077       6.70998994      25.67430755  F      -0.01811533      -0.00311397       0.01484923
V        3.07819602       0.56183567      25.97138797  F       0.01155347      -0.03353852      -0.01732243
Ti       0.74344881       3.91655478      26.61320154  F       0.00300786       0.04599015       0.04653025
Ti       3.06058866       5.59752377      26.93683778  F      -0.02744354       0.00988260      -0.01006707
Ti       0.75073670       1.11817754      27.50042044  F       0.08491436       0.04100924      -0.02903687
Ti       3.07027015       2.75835880      27.92395911  F      -0.01665757      -0.00744027      -0.00271169
Ti       0.71704009       6.11369956      28.48347836  F       0.03093239      -0.07120715       0.09647684
Ti       3.10304471       0.02639663      28.86186803  F       0.01533906       0.00363138       0.21269191
Ti       0.73043305       3.32908400      29.53109936  F      -0.01653068      -0.01319719       0.28125595
Ti       3.05156844       5.00559268      29.71029984  F       0.07751419       0.24698886       0.43674062
Ti       0.84894861       0.62621486      30.45144121  F      -0.20547778       0.15779534       0.07896074
Ti       2.95275115       2.27090304      30.92657288  F       0.37212380       0.15472793      -0.18779553
Ti       0.78185809       5.59333543      31.18178786  F      -0.09065002      -0.24807895       0.28431883
Ti       3.59389006       7.38623951      31.81871713  F      -1.26936668      -0.12461192      -0.20032801
Ti       0.37456039       2.79148474      32.54524664  F       0.32686488      -0.14191806      -1.27351482
Ti       2.70136311       4.56319847      32.54898169  F       0.72103490       0.02897484      -0.29663233
