52
Lattice="4.6568 0.0 0.0 0.0 7.770572 0.0 0.0 0.0 41.044546" Properties=species:S:1:pos:R:3:move_mask:L:1:forces:R:3 job_name=BondOrder-VacuumGB-CSL7-Al-Al-29-d-2.09 top_level=BondOrder-VacuumGB solute=Al energy=-388.11093718 stress_kbar_3x3="_JSON [[-21.80481689, -1.53606512, 0.55660076], [-1.53606509, -26.22982809, -1.18193614], [0.55660071, -1.18193616, -18.42803741]]" pbc="T T T"
Ti       1.81616131       7.39046670       8.22393150  F       1.07324954      -0.12709447       0.82797565
Ti       4.63101064       5.59741498       8.88023379  F      -0.09945910      -0.07610336       0.01104451
Ti       2.45895339       2.27235614       9.12399735  F      -0.59747150       0.31099928       0.68108377
Ti       4.56701690       0.62459081       9.59432681  F      -0.30318745      -0.38399922       0.23732155
Ti       2.35902312       5.00734106      10.34146068  F      -0.08120358       0.00641024      -0.40017940
Ti       0.02387076       3.33568121      10.52681785  F       0.01184414       0.27629569       0.07459888
Ti       2.30878090       0.00923921      11.16321353  F      -0.04657561       0.17301281      -0.47812328
Ti       0.03003636       6.10266534      11.60735656  F      -0.01623910      -0.02831111      -0.24631200
Ti       2.33675896       2.76029367      12.11204030  F       0.01475448      -0.08191382      -0.20347732
Ti       0.00289653       1.11359290      12.50935151  F      -0.05328882      -0.08690096       0.09181292
Ti       2.34386989       5.56305351      13.13355696  F       0.03147918       0.03135046      -0.04792358
Ti       0.00194189       3.86693968      13.46240587  F      -0.01443031       0.00508451      -0.03366483
Ti       2.33179946       0.55869636      14.09067473  F      -0.00955967      -0.00127639      -0.00992397
Ti       0.00427494       6.63498838      14.43167282  F       0.02057800       0.02080187      -0.04550516
Ti       2.31554258       3.31219854      15.04816190  F       0.01792473      -0.00530193      -0.02451483
Ti       4.65281844       1.66518696      15.43800300  F      -0.01301768      -0.04044939      -0.02366971
Ti       2.32631375       6.09707830      15.96004858  F      -0.00090900      -0.00145699      -0.02285919
Ti       4.59329056       4.42032096      16.39672150  F      -0.01673202       0.01899094      -0.00922440
Ti       2.33844472       1.09437628      17.02211725  F      -0.00988096       0.01954471      -0.02415679
Ti       4.63611449       7.18783349      17.22512358  F      -0.00850534       0.00998085       0.00808327
Ti       2.19617016       3.81714585      17.95953364  F       0.00616937       0.00993663       0.00753186
Ti       0.10801448       2.15650468      18.40564681  F       0.00267433       0.00133775       0.00057216
Ti       2.24683149       6.62619209      18.69525712  F       0.00426681      -0.00996818       0.01457972
Ti       4.00799134       4.79843700      19.36793619  F      -0.00037324      -0.00874409       0.00182060
Ti       2.76131941       1.69430329      20.04164137  F      -0.00733375      -0.00615624       0.00782126
Ti       0.34208387       7.68403891      20.06031663  F      -0.00247956       0.00577670       0.00134278
Ti       1.15554301       4.92310806      20.80745051  F      -0.01403952       0.00919591      -0.00001482
Ti       3.07355785       6.66780350      21.41876797  F       0.00820549       0.00410384       0.00311844
Ti       0.72764828       2.21350960      21.68810228  F       0.00715558       0.00285038      -0.00115466
Al       3.23945170       3.85822110      22.09202166  F      -0.00402552      -0.00326673       0.00230122
Ti       0.75432709       7.24919770      22.88549483  F       0.00137447       0.00931157      -0.00699054
Ti       3.11877072       1.17780114      23.08513550  F       0.00276482      -0.00937871       0.00686140
Ti       0.86895422       4.39515985      23.62950931  F       0.00791388       0.00553617       0.00979141
Ti       3.06258643       6.10516747      24.09130150  F       0.00730445       0.00899100      -0.01357918
Ti       0.79344421       1.64753999      24.71402935  F      -0.00197467      -0.00323772       0.01364141
Ti       3.11674036       3.31383814      25.00351653  F       0.00480407      -0.02242369       0.01319862
Ti       0.74478531       6.60045596      25.63900924  F      -0.00956945      -0.03067549       0.00769547
Ti       3.09761954       0.53652691      25.99429083  F       0.01587638      -0.00681844      -0.01331975
Ti       0.75871845       3.86153136      26.60860455  F       0.01867336       0.04163979       0.03252978
Ti       3.06679152       5.55009220      26.93675569  F      -0.02512973      -0.00163564       0.00449169
Ti       0.76395735       1.08349748      27.59026695  F       0.09156984       0.03250390      -0.00708699
Ti       3.07509460       2.73834957      27.94197767  F      -0.00874372       0.00044434       0.01027185
Ti       0.72957620       6.09223724      28.46632174  F       0.04218968      -0.08258646       0.08444601
Ti       3.11413255       7.76133279      28.92121845  F       0.01405279       0.01298849       0.23984769
Ti       0.72690785       3.32596023      29.53233069  F      -0.01694847      -0.00370807       0.29250045
Ti       3.05330543       4.98749501      29.72220276  F       0.08005829       0.24478221       0.44265391
Ti       0.84974027       0.61221229      30.48353805  F      -0.18078926       0.12419586       0.07383049
Ti       2.95377099       2.26949657      30.92993853  F       0.37738394       0.13597270      -0.18803417
Ti       0.77751330       5.58735209      31.18819081  F      -0.10018660      -0.25380957       0.27473646
Ti       3.59212047       7.38867170      31.85245575  F      -1.26849477      -0.15036029      -0.14280388
Ti       0.37444397       2.79885902      32.55653389  F       0.31977613      -0.13400693      -1.27336633
Ti       2.70365426       4.56486914      32.55780627  F       0.72850465       0.03754531      -0.26162046
