64
Lattice="5.871999 0.0 0.0 0.0 6.890708 0.0 0.0 0.0 43.401158" Properties=species:S:1:pos:R:3:move_mask:L:1:forces:R:3 job_name=BondOrder-VacuumGB-T1m-Al-Al-32-d-0.00 top_level=BondOrder-VacuumGB solute=Al energy=-482.08518254 stress_kbar_3x3="_JSON [[-16.98964681, -0.00019969, 0.00023963], [-0.00019967, -26.61316214, -0.48741044], [0.00023961, -0.48741043, -17.79214776]]" pbc="T T T"
Ti       2.93604060       0.10126584       8.85626670  F       0.00005275      -0.29768247       0.18654644
Ti       2.93602299       2.93952091       8.85626670  F       0.00006553       0.13678953       0.98151881
Ti       0.00002349       0.10242348       8.85626670  F      -0.00005827      -0.29559138       0.19371747
Ti       0.00002349       2.94223585       8.85626670  F      -0.00009026       0.13471139       0.97911634
Ti       4.40447488       5.02921769      10.27001602  F       0.00107662       0.21348206      -0.28580241
Ti       1.46756522       5.02921769      10.27001602  F      -0.00104168       0.21354387      -0.28573624
Ti       4.40114546       1.32061108      10.88579165  F       0.00707138      -0.06277293      -0.69566319
Ti       1.47090639       1.32060419      10.88579165  F      -0.00702692      -0.06280963      -0.69571196
Ti       2.93601124       3.41205810      12.06404628  F      -0.00001358       0.01758249       0.04914241
Ti       0.00002349       3.41001845      12.06330846  F       0.00005135       0.01786833       0.05082265
Ti       2.93602886       6.23139817      12.47765932  F      -0.00004776       0.00691191      -0.04530439
Ti       0.00002349       6.23177027      12.47969917  F       0.00003077       0.00821267      -0.04813064
Ti       1.46680773       1.49419490      13.70070395  F       0.00055567       0.02218952       0.01147186
Ti       4.40522650       1.49420179      13.70070395  F      -0.00058707       0.02206055       0.01137766
Ti       1.46758284       4.43980720      14.30055136  F      -0.00116256      -0.03021726       0.02955772
Ti       4.40445727       4.43980720      14.30055136  F       0.00113920      -0.03026709       0.02965915
Ti       2.93601124       6.59375294      15.45606379  F      -0.00001704       0.01530949       0.01997483
Ti       0.00001174       6.59136186      15.46179274  F       0.00004850       0.01251598       0.01602497
Ti       2.93601712       2.52662968      15.96845786  F      -0.00000304      -0.01703222      -0.02276100
Ti       0.00001174       2.52205425      15.97023731  F       0.00003039      -0.01682841      -0.01428948
Ti       4.39468039       4.68342129      17.12904823  F       0.00547430       0.01747012       0.01636315
Ti       1.47733623       4.68342129      17.12904823  F      -0.00545870       0.01747280       0.01621639
Ti       4.40590178       0.73769853      17.73722865  F      -0.00039311      -0.00449477       0.00755521
Ti       1.46611484       0.73769853      17.73722865  F       0.00036237      -0.00444001       0.00753331
Ti       0.00000000       2.87228138      18.95289509  F      -0.00004309       0.00562221       0.00572895
Ti       2.93599950       2.90623190      18.91175079  F       0.00002609      -0.00596790       0.01258566
Ti       0.00001174       5.69891871      19.35817510  F      -0.00007613      -0.00465868      -0.00295751
Ti       2.93599950       5.74433536      19.39806077  F       0.00007998      -0.00854962      -0.00250948
Ti       1.47246247       0.90654844      20.56694075  F       0.00155202      -0.00423574       0.00740709
Ti       4.39952479       0.90654154      20.56694075  F      -0.00151049      -0.00429272       0.00735078
Ti       1.48785298       4.06727485      21.15020892  F      -0.00007113      -0.00156747      -0.00557649
Ti       4.38414602       4.06727485      21.15020892  F       0.00010700      -0.00151518      -0.00571088
Al       2.93602886       2.14622126      22.55684045  F      -0.00032844      -0.01694015       0.00200566
Ti       0.00000000       2.05227335      22.55688385  F       0.00002392       0.01151133       0.00007751
Ti       2.93598188       6.22042816      22.55688385  F      -0.00000634      -0.00451755      -0.00539976
Ti       5.87198726       6.10388562      22.55688385  F       0.00001497      -0.00029341      -0.00154428
Ti       4.38411666       4.06726107      23.96351538  F      -0.00514894      -0.00139495       0.01229443
Ti       1.48787647       4.06725418      23.96355878  F       0.00522605      -0.00144488       0.01187991
Ti       4.39949543       0.90660356      24.54678354  F      -0.00617621      -0.00616524      -0.00442616
Ti       1.47249183       0.90658978      24.54682694  F       0.00629272      -0.00601047      -0.00487620
Ti       2.93599950       5.74437671      25.71557673  F       0.00019498       0.00751822      -0.02457753
Ti       0.00001762       5.69893938      25.75550579  F      -0.00020762       0.01785581      -0.03162457
Ti       2.93600537       2.90627324      26.20197350  F       0.00012253      -0.01312231      -0.00236298
Ti       0.00000587       2.87230894      26.16078580  F      -0.00011393      -0.00339731       0.00829278
Ti       4.40590178       0.73773298      27.37645224  F       0.00155541      -0.00807054       0.02434557
Ti       1.46613833       0.73772609      27.37645224  F      -0.00158563      -0.00803520       0.02446877
Ti       4.39468626       4.68346952      27.98463267  F       0.00364485      -0.03091070       0.00660927
Ti       1.47734797       4.68346263      27.98463267  F      -0.00367129      -0.03086145       0.00662194
Ti       0.00002936       2.52210249      29.14344359  F      -0.00013009       0.01652292      -0.04679524
Ti       2.93602299       2.52666414      29.14526643  F       0.00009345       0.02055280      -0.04100047
Ti       0.00002936       6.59139632      29.65193155  F      -0.00011970       0.04598323       0.11056661
Ti       2.93602299       6.59378050      29.65766051  F       0.00010474       0.04377667       0.10646562
Ti       1.46759458       4.43982098      30.81317294  F      -0.00235562       0.00257766      -0.05840255
Ti       4.40447488       4.43982098      30.81317294  F       0.00235784       0.00252832      -0.05844800
Ti       1.46680186       1.49421558      31.41306374  F      -0.00413551      -0.02428093       0.01084024
Ti       4.40523237       1.49421558      31.41306374  F       0.00416289      -0.02422502       0.01116807
Ti       2.93603473       6.23140506      32.63610837  F       0.00022574       0.13807849       0.55261350
Ti       0.00002936       6.23178405      32.63406852  F      -0.00023471       0.13928195       0.55539322
Ti       2.93601712       3.41207877      33.04976481  F       0.00037671       0.13759600       0.23842574
Ti       0.00003523       3.41003912      33.05054603  F      -0.00035682       0.14096111       0.24990171
Ti       4.40115720       1.32059041      34.22797605  F       0.01372812      -0.26315137      -0.16159839
Ti       1.47091226       1.32058352      34.22797605  F      -0.01373412      -0.26314454      -0.16121780
Ti       4.40447488       5.02925214      34.84375168  F       0.00116018      -0.01378032      -0.92976755
Ti       1.46756522       5.02925214      34.84370828  F      -0.00110319      -0.01381761      -0.92944624
