64
Lattice="5.872 0.0 0.0 0.0 6.890708 0.0 0.0 0.0 43.394398" Properties=species:S:1:pos:R:3:move_mask:L:1:forces:R:3 job_name=BondOrder-VacuumGB-T1g-Al-Al-47-d-6.48 top_level=BondOrder-VacuumGB solute=Al energy=-482.12438904 stress_kbar_3x3="_JSON [[-17.81641946, 0.00031314, 0.00076721], [0.00031312, -26.31776169, -1.15033409], [0.00076717, -1.15033409, -17.80349061]]" pbc="T T T"
Ti       4.40398238       5.21328917      34.64986268  F      -0.00012971      -0.26520279      -0.46456990
Ti       1.46804698       5.22079315      34.64808351  F       0.00015416      -0.28440086      -0.45557161
Ti       0.00233706       3.19190687       8.53841193  F      -0.00981135       0.16540940       0.95199445
Ti       2.93368643       3.19186552       8.53841193  F       0.00976132       0.16527502       0.95235435
Ti       5.86949266       6.64167781       9.15456899  F       0.01445187      -0.21399606       0.14034971
Ti       2.93851322       6.64171227       9.15456899  F      -0.01452674      -0.21410138       0.14002790
Ti       4.40400587       1.76978877      10.44832957  F      -0.00111495       0.04710475      -0.51643114
Ti       1.46800587       1.77110490      10.44854654  F       0.00108108       0.03367316      -0.51747029
Ti       1.46797064       4.59913415      10.65926974  F       0.00066649       0.11865583      -0.35412777
Ti       4.40396477       4.59958893      10.65957350  F      -0.00062088       0.10919359      -0.35944796
Ti       0.00107458       6.72644041      11.97412000  F      -0.00310185      -0.10267264       0.01648805
Ti       2.93484322       6.72645419      11.97416340  F       0.00320862      -0.10239920       0.01541955
Ti       2.93540106       2.87921343      12.58537349  F       0.00159413      -0.06392740       0.10165438
Ti       0.00056371       2.87922721      12.58537349  F      -0.00157571      -0.06446152       0.10190349
Ti       4.40397064       5.00626474      13.74591327  F       0.00006838       0.06959760      -0.08928433
Ti       1.46797651       5.00781515      13.74530575  F       0.00001551       0.06438739      -0.08753127
Ti       4.40395890       0.93406992      14.22064799  F       0.00024316       0.01483802       0.03676721
Ti       1.46794128       0.93455227      14.22199321  F      -0.00011480       0.00998832       0.03697450
Ti       2.93569466       3.09310790      15.40670367  F      -0.00144846      -0.02510867      -0.02978301
Ti       0.00025837       3.09310101      15.40670367  F       0.00147282      -0.02506737      -0.02914299
Ti       2.93554198       6.02666145      16.00910470  F       0.00083883       0.00528312      -0.04439571
Ti       0.00042278       6.02667523      16.00910470  F      -0.00083740       0.00525524      -0.04424963
Ti       4.40400000       1.29511546      17.19129829  F       0.00025427       0.00426524       0.00250773
Ti       1.46802936       1.29582520      17.19121150  F      -0.00037141       0.00268285       0.00389189
Ti       4.40398238       4.11428326      17.66837630  F       0.00031780       0.01228128       0.03321764
Ti       1.46802349       4.11554426      17.67128373  F      -0.00042463       0.01034360       0.03117184
Ti       2.93949384       6.24614428      18.83099901  F      -0.00184600       0.00208766       0.00590377
Ti       5.86855314       6.24613739      18.83104241  F       0.00176636       0.00203571       0.00521564
Ti       2.93289371       2.39892419      19.44220911  F       0.00180714       0.00134549      -0.00243698
Ti       0.00314739       2.39891730      19.44229590  F      -0.00176801       0.00155930      -0.00338485
Ti       1.46801762       4.52749146      20.75601790  F       0.00003106       0.00165530      -0.00509805
Ti       4.40402349       4.52676104      20.74560325  F      -0.00005492      -0.00398285      -0.00393220
Ti       4.40404110       0.47310223      20.97793685  F      -0.00010516       0.00221847       0.00145439
Ti       1.46805872       0.46385490      20.97889153  F      -0.00000235       0.00953386       0.00238345
Ti       0.01509691       2.49564906      22.25564151  F       0.00142148       0.00896331      -0.00643793
Ti       2.92095006       2.49565595      22.25572830  F      -0.00135603       0.00892777      -0.00715711
Ti       5.86003286       5.93531134      22.88065102  F      -0.00589377      -0.01190531      -0.00329193
Ti       2.94803760       5.93532512      22.88069442  F       0.00589086      -0.01206696      -0.00320078
Ti       4.40407046       3.91035276      24.17757940  F      -0.00022424      -0.00539132       0.02235217
Ti       1.46801762       3.90932604      24.19918981  F       0.00025132      -0.01082487      -0.00102458
Ti       4.40401174       1.08325375      24.32464301  F      -0.00006570      -0.00675016      -0.00119039
Ti       1.46798826       1.08188250      24.39259864  F       0.00017464       0.00495964      -0.00056483
Ti       5.85300995       5.82701008      25.71378448  F       0.00364694       0.00227734      -0.01617212
Ti       2.95504290       5.82698941      25.71382787  F      -0.00370679       0.00226442      -0.01624419
Ti       2.91229474       2.77554962      26.28363971  F       0.01568100       0.00292588      -0.00627837
Ti       0.02378160       2.77557029      26.28359632  F      -0.01571393       0.00264657      -0.00574498
Ti       4.40402349       0.61334192      27.43281016  F       0.00019819      -0.00979335       0.01389863
Al       1.46802936       0.66148041      27.41558259  F      -0.00009718      -0.00559847       0.00101273
Ti       1.46800000       4.76446980      27.92173484  F       0.00016647      -0.00594197      -0.02236808
Ti       4.40403523       4.65967591      27.92564034  F      -0.00007485       0.01132278      -0.02052620
Ti       2.90090893       2.53645583      29.09151763  F       0.01131657      -0.02037305      -0.02039518
Ti       0.03515566       2.53642138      29.09147424  F      -0.01156454      -0.02023250      -0.02008889
Ti       2.91914736       6.53318362      29.66710093  F       0.02215451       0.02214087       0.03421476
Ti       0.01696421       6.53321118      29.66718771  F      -0.02230020       0.02219202       0.03355146
Ti       4.40404110       4.37894846      30.87628583  F      -0.00006225      -0.00736620       0.02618324
Ti       1.46800587       4.39379794      30.84452113  F       0.00014042       0.02481929       0.02278588
Ti       4.40404110       1.54810780      31.34559624  F      -0.00008425       0.00938740      -0.02306728
Ti       1.46799413       1.57567064      31.39237540  F       0.00016910      -0.01898576       0.01272701
Ti       2.93993424       6.31656732      32.49815145  F       0.01664482      -0.08419775       0.75680421
Ti       5.86810686       6.31653976      32.49815145  F      -0.01665561      -0.08423798       0.75718509
Ti       0.00635938       3.29116752      33.11391796  F      -0.00419924       0.28685308       0.22873341
Ti       2.92965237       3.29115374      33.11387456  F       0.00424894       0.28694257       0.22860500
Ti       1.46801174       1.16129791      34.43020023  F       0.00002872       0.07766792      -0.75157069
Ti       4.40398826       1.15594383      34.42186851  F      -0.00001407       0.03602537      -0.78555226
