64
Lattice="5.088765 0.0 0.0 0.0 9.739025 0.0 0.0 0.0 38.303587" Properties=species:S:1:pos:R:3:move_mask:L:1:forces:R:3 job_name=BondOrder-VacuumGB-T2-Al-Al-37-d-1.39 top_level=BondOrder-VacuumGB solute=Al energy=-477.48146341 stress_kbar_3x3="_JSON [[-18.55057711, 1.20968944, 1.39890543], [1.20968945, -19.32213315, 1.87444573], [1.39890549, 1.87444571, -20.95316706]]" pbc="T T T"
Ti       2.56926147       9.26790940       8.35198223  F       0.84125148       0.04554811       0.91831548
Ti       0.01426890       4.40091931       8.35677018  F       0.84782700       0.01758902       0.92430527
Ti       1.29513649       1.90085316       8.95610641  F      -0.83813286      -0.42156861       0.61337076
Ti       3.83313259       6.77222581       8.94928837  F      -0.83619375      -0.41802787       0.63488269
Ti       2.70478037       4.10774544       9.73730807  F      -0.13733354      -0.13450446       0.09851189
Ti       0.16618380       8.97448232       9.72102904  F      -0.15855292      -0.12822999       0.12835207
Ti       1.02645988       6.22073405      10.48051256  F       0.06647690       0.24797784      -0.70112093
Ti       3.57540191       1.35423090      10.48503239  F       0.08305941       0.22056122      -0.69984735
Ti       0.23117242       3.49177159      11.10260112  F       0.05561430       0.26785065      -0.45352230
Ti       2.77511219       8.36263781      11.10030291  F       0.07136410       0.27583824      -0.45634133
Ti       1.10609905       0.85486240      11.85576455  F      -0.07146938       0.03378357      -0.18567956
Ti       3.64972841       5.72812442      11.86185482  F      -0.05261955       0.02268491      -0.17401251
Ti       2.75853300       3.09742873      12.54270108  F       0.02203507      -0.08592921      -0.03432198
Ti       0.21369760       7.96636663      12.53021411  F       0.02042510      -0.08047165      -0.03901174
Ti       3.59196584       0.40381893      13.20757474  F       0.00419885       0.06174050      -0.01514223
Ti       1.04804133       5.27116937      13.19796054  F       0.00104122       0.03872753      -0.01060391
Ti       2.72835153       7.49441347      13.93124441  F      -0.01961018      -0.03803757       0.03226015
Ti       0.18528702       2.61846348      13.93139763  F      -0.01650244      -0.04175950       0.01659243
Ti       3.59804183       4.84120115      14.68226284  F       0.01721111       0.00554635      -0.04597099
Ti       1.05546584       9.70857107      14.66724784  F       0.00603619       0.01580738      -0.02835785
Ti       0.16840250       7.04610668      15.27010799  F       0.02274714      -0.00188536       0.02252882
Ti       2.71423021       2.18475548      15.29496702  F       0.01148188      -0.02867156      -0.02591400
Ti       1.07971380       4.43898916      15.98439328  F      -0.00389842       0.03606788      -0.00124290
Ti       3.62445252       9.32718111      16.00109365  F      -0.01114303       0.00825132      -0.01291585
Ti       0.24076474       1.77364202      16.73119832  F      -0.02107924      -0.01360516      -0.00876756
Ti       2.77583480       6.65125738      16.73020243  F       0.00466277      -0.00979651       0.01598800
Ti       0.95223515       8.71606703      17.37266849  F      -0.01542355      -0.00106943      -0.01530016
Ti       3.47070057       3.84253231      17.40817592  F       0.02269557       0.02831562       0.01080101
Ti       2.55933838       1.04462730      18.20898901  F       0.02540123      -0.03182233      -0.00516277
Ti       0.04153450       5.89948257      18.12192496  F      -0.00493938      -0.01716607       0.01475980
Ti       3.84965072       8.18965325      18.92097608  F      -0.00367835      -0.00952308       0.00850651
Ti       1.25435513       3.31913763      18.94277083  F       0.00902879      -0.00410299       0.00165733
Ti       0.00088036       0.91213760      19.44611826  F      -0.02263427      -0.00988608      -0.00980528
Ti       2.52097927       5.81573669      19.44332210  F       0.01923394      -0.01761066       0.00687564
Ti       3.81129670       3.53121464      20.15484953  F       0.01477442      -0.01525772      -0.00910557
Ti       1.37957946       8.43896255      20.10693175  F       0.00523802      -0.02809996      -0.01159254
Ti       2.33926965       1.35694809      20.97335888  F       0.00143663      -0.01598560      -0.02172085
Al       4.89949856       6.23499198      20.86993920  F      -0.00202457       0.01102949      -0.01333905
Ti       1.42185183       4.04547412      21.66021881  F       0.01177244      -0.00191478      -0.02382742
Ti       4.10657738       8.91029241      21.60464030  F      -0.01490794       0.01729775      -0.00308263
Ti       4.90699940       1.88115111      22.25718021  F      -0.00837660       0.00136485       0.00283811
Ti       2.33669473       6.72934489      22.23128698  F      -0.01084523       0.00171611      -0.00030619
Ti       1.47406765       9.34377641      23.02083882  F       0.01487785       0.02823655       0.00558820
Ti       3.93363570       4.47253036      22.92699503  F       0.03033838      -0.00409122       0.02137229
Ti       4.92906938       7.07386290      23.63227898  F      -0.01430448       0.03873397       0.07056263
Ti       2.35832707       2.23024646      23.70428973  F      -0.01885256       0.02567562       0.02378675
Ti       1.52855305       4.88329322      24.37429607  F      -0.03449768      -0.00581596       0.02372091
Ti       4.07344443       0.02072465      24.34836454  F      -0.04270048      -0.00553361       0.01668166
Ti       2.37116603       7.54275799      25.05548706  F       0.03827566       0.00272960       0.01172362
Ti       4.90052649       2.69749567      25.05069911  F       0.02832304      -0.00758488       0.01324563
Ti       4.04183302       5.33028525      25.79520593  F       0.06286017       0.00465356       0.14158059
Ti       1.49968958       0.44984556      25.81470246  F       0.05704072       0.00866963       0.15541557
Ti       4.91319243       7.98482208      26.45008236  F      -0.12516592       0.00273594       0.15803379
Ti       2.36056104       3.11416037      26.48313836  F      -0.11775368       0.01269475       0.18159375
Ti       1.45748845       5.74352182      27.14291764  F       0.10613050       0.11931327       0.48895991
Ti       4.00787060       0.87573313      27.12843889  F       0.08965462       0.11736828       0.44515608
Ti       2.35724826       8.34949987      27.87692928  F       0.14614813       0.33726047       0.35947295
Ti       4.89543773       3.49002830      27.88332598  F       0.13663708       0.32725705       0.36621339
Ti       1.54352929       1.33039951      28.53421883  F      -0.23300057       0.16895012       0.19425554
Ti       4.08642587       6.20521004      28.52464294  F      -0.25304862       0.16240066       0.15569300
Ti       4.93085553       8.94253832      29.23574903  F      -0.74157740      -0.60466466      -0.55074793
Ti       2.37791882       4.07484702      29.25869288  F      -0.74157609      -0.60270571      -0.55255745
Ti       3.84336610       1.89019867      30.04433775  F       0.83760942       0.02946208      -1.08401256
Ti       1.29040394       6.75727641      30.04468248  F       0.83893353       0.04148231      -1.09026884
