52
Lattice="4.6568 0.0 0.0 0.0 7.770572 0.0 0.0 0.0 41.044546" Properties=species:S:1:pos:R:3:move_mask:L:1:forces:R:3 job_name=BondOrder-VacuumGB-CSL7-V-V-32-d-3.65 top_level=BondOrder-VacuumGB solute=V energy=-392.09985994 stress_kbar_3x3="_JSON [[-24.61761276, -0.33311454, -1.52571215], [-0.33311453, -27.84474812, 0.01813749], [-1.52571215, 0.01813752, -20.47090544]]" pbc="T T T"
Ti       1.81532309       7.39428205       8.22122256  F       1.06944606      -0.13300172       0.83783826
Ti       4.62988835       5.60022016       8.88228602  F      -0.10043293      -0.07961002      -0.00362383
Ti       2.45625244       2.27289231       9.12810181  F      -0.59505438       0.30873493       0.67345931
Ti       4.56740807       0.62373604       9.59403949  F      -0.31015044      -0.37521938       0.23782265
Ti       2.35608468       5.00870868      10.34388230  F      -0.06523250       0.01579496      -0.40194839
Ti       0.02238524       3.33572784      10.52850067  F       0.01440260       0.27949378       0.07627003
Ti       2.30977746       0.01174133      11.16559412  F      -0.03800639       0.17183136      -0.47826857
Ti       0.02958931       6.10334138      11.60747970  F      -0.01133629      -0.02083841      -0.23114251
Ti       2.33871947       2.76525906      12.11885370  F       0.02123980      -0.08228479      -0.19646428
Ti       0.00199777       1.11655349      12.51181418  F      -0.03788013      -0.08403570       0.10324042
Ti       2.34591422       5.56932436      13.13675844  F       0.03976441       0.03721657      -0.03957558
Ti       0.00759524       3.87285308      13.46831628  F      -0.00013844       0.00895035      -0.02391316
Ti       2.33399747       0.56676998      14.09884260  F      -0.00126699      -0.01022876      -0.00552213
Ti       0.01782157       6.64095618      14.43503847  F       0.02297386       0.02075509      -0.03405384
Ti       2.33258646       3.32393211      15.05727379  F       0.02416140      -0.01931710      -0.02303146
Ti       0.01147901       1.67267002      15.44522684  F       0.00417072      -0.04417501      -0.01660983
Ti       2.35637340       6.10841557      15.96378363  F       0.00107995      -0.00394070      -0.01283563
Ti       4.63982131       4.42697257      16.40345281  F      -0.01365685       0.01755160       0.00267403
Ti       2.35087837       1.10843324      17.03541568  F       0.00258637       0.01257303      -0.01769454
Ti       0.03266280       7.19984680      17.23082877  F       0.00577934      -0.00274605       0.01893108
Ti       2.23493802       3.82260080      17.99183569  F      -0.00037708       0.00290551       0.02573327
Ti       0.12506302       2.16142345      18.43068398  F       0.00774032      -0.01069340       0.00297133
Ti       2.30828262       6.61480820      18.69373848  F       0.00360356      -0.02587754       0.03428369
Ti       4.17057420       4.81055132      19.34614153  F       0.00661881      -0.00859028       0.00408672
Ti       2.70789195       1.65259086      20.05436518  F      -0.00090319      -0.01451727       0.00425541
Ti       0.38409286       7.64318901      20.06778674  F      -0.00382198      -0.00677570       0.00548099
Ti       1.25463040       4.82311633      20.83737198  F       0.00409211      -0.00006177       0.01143666
Ti       3.09853693       6.58677975      21.40711132  F       0.00173808      -0.01091309      -0.01049870
Ti       0.62762022       2.17565137      21.67870308  F       0.00177442      -0.01312950      -0.00473432
Ti       3.23844583       3.81578600      22.17911819  F      -0.00217577      -0.00291813      -0.00246876
Ti       0.69422177       7.15733400      22.88877839  F       0.00418986       0.00292255      -0.00499003
Ti       3.03899974       1.06617687      23.03259848  F       0.00059284      -0.01108923       0.00148653
V        0.79269447       4.45368780      23.70827379  F       0.01888920       0.01773210      -0.02089187
Ti       3.04249700       6.03573741      24.12815950  F       0.00086810      -0.00063367       0.00636181
Ti       0.72666570       1.72300778      24.60054118  F      -0.00959396       0.00201552       0.00134963
Ti       3.08033350       3.34423661      24.98319948  F      -0.00742193      -0.01114490       0.00813055
Ti       0.71973638       6.63087775      25.63404285  F      -0.02602458      -0.01438002       0.00593616
Ti       3.06814665       0.56674667      25.95180972  F       0.00357680      -0.00528836      -0.02274571
Ti       0.74283411       3.89712058      26.57178759  F      -0.00290139       0.03233519       0.03797945
Ti       3.05093512       5.58634969      26.96593837  F      -0.02731213       0.00885403      -0.00671878
Ti       0.74651298       1.12126246      27.53649860  F       0.08606527       0.02706130      -0.01968688
Ti       3.06880792       2.76773011      27.93155235  F      -0.01231610      -0.01351970      -0.00026683
Ti       0.71964790       6.11526921      28.46476205  F       0.01247187      -0.06079053       0.07449517
Ti       3.09656244       0.02681624      28.89626336  F       0.00256796       0.00801871       0.22839219
Ti       0.73177421       3.33883607      29.51788301  F      -0.02808253       0.00449538       0.26104271
Ti       3.05417159       5.01163041      29.72979600  F       0.06823517       0.24833041       0.46446146
Ti       0.84276438       0.62503373      30.46822843  F      -0.17794327       0.14701030       0.07983737
Ti       2.94893257       2.28112135      30.93638252  F       0.37144750       0.17252031      -0.19162290
Ti       0.77816991       5.59119075      31.18888857  F      -0.08759129      -0.24626732       0.27394565
Ti       3.59342903       7.39676086      31.84248192  F      -1.27502838      -0.15609704      -0.16962387
Ti       0.37389447       2.79813635      32.55464584  F       0.32297121      -0.13657826      -1.28403435
Ti       2.70251800       4.56642326      32.56199281  F       0.71160132       0.05756035      -0.25893578
