52
Lattice="5.088765 0.0 0.0 0.0 5.495746 0.0 0.0 0.0 48.722931" Properties=species:S:1:pos:R:3:move_mask:L:1:forces:R:3 job_name=BondOrder-VacuumGB-C1-V-V-34-d-5.07 top_level=BondOrder-VacuumGB solute=V energy=-394.70487449 stress_kbar_3x3="_JSON [[-36.94167249, 0.48851317, -0.08769943], [0.48851319, -26.93184512, -0.34617231], [-0.0876994, -0.34617231, -24.83489895]]" pbc="T T T"
Ti       2.61629184       0.79356374       7.98042631  F       0.10344628      -0.02167369       1.71622157
Ti       0.03117886       1.60225177       9.36235481  F      -0.06145467      -0.59339629       0.35986889
Ti       0.81814619       4.34804738       9.36250098  F      -0.07811629       0.59503989       0.00896460
Ti       2.56967366       2.36038444      10.58218211  F      -0.19751050      -0.34523402      -0.66694829
Ti       3.36613663       5.10806509      10.57896639  F       0.24681904       0.40833406      -0.52533259
Ti       0.81088961       0.38878556      11.82671193  F      -0.04924283      -0.04152820      -0.23805105
Ti       0.03435425       3.13719714      11.82632215  F       0.02922402      -0.02184548      -0.36147175
Ti       3.37078267       1.18367927      13.07450620  F      -0.05751015      -0.03764256       0.02808899
Ti       2.56615733       3.93270638      13.07270345  F       0.06789172       0.02388732       0.02748987
Ti       0.01171943       4.70550719      14.31971814  F      -0.03446982       0.03649958       0.05406070
Ti       0.83560575       1.95675487      14.31801284  F       0.02970705      -0.01449719       0.02223064
Ti       3.37231439       2.73614508      15.56663539  F      -0.00833718       0.01164895      -0.01437118
Ti       2.56159779       5.48510624      15.56741496  F       0.00339601       0.02010634      -0.01776565
Ti       0.82725508       3.53771612      16.81915578  F      -0.00677455      -0.00942717       0.00375452
Ti       0.01925589       0.79238765      16.81969173  F       0.01011924      -0.00330204       0.00540961
Ti       2.55596962       1.57777921      18.06958108  F       0.00423054       0.00620991      -0.00976250
Ti       3.37853795       4.32126661      18.06631665  F      -0.01407781      -0.00255318       0.00723997
Ti       0.82577934       5.09465547      19.31011563  F      -0.00235726       0.00455883      -0.01500306
Ti       0.01940346       2.34930501      19.31781385  F      -0.00390742       0.00462490      -0.00329545
Ti       3.34815802       0.39444618      20.55284271  F      -0.00521811      -0.00226744      -0.00943871
Ti       2.57579036       3.14560563      20.56107688  F      -0.00288455       0.00006127       0.00063807
Ti       0.02402406       3.92974966      21.80643500  F      -0.00986978       0.00488757      -0.00651738
Ti       0.81280299       1.18024992      21.81057645  F      -0.00126789       0.00109396       0.00445597
Ti       2.58309782       4.69743394      23.03318096  F       0.00447572       0.00358040       0.00701001
Ti       3.37446694       1.94624151      23.00219317  F       0.00756837       0.00421574       0.00071786
Ti       0.76208327       2.73837635      24.34655628  F       0.00862477       0.00609921      -0.01152842
Ti       0.07359372       5.47396636      24.43839901  F       0.00415564       0.00927396       0.01932094
Ti       3.30657263       1.87600038      25.74816884  F      -0.01889989      -0.00179596      -0.01364787
Ti       2.56768904       4.61198058      25.79674560  F      -0.00304013       0.00145631       0.00045755
Ti       0.00878321       3.85087472      27.00721810  F       0.00455962      -0.00394433      -0.02267214
Ti       0.86374153       1.14013647      27.04673240  F       0.00561832      -0.00612534       0.00324036
Ti       3.42526808       0.41224140      28.17559398  F       0.00572834      -0.00195993      -0.00993271
Ti       2.61404260       3.14107164      28.24156483  F       0.01281168       0.00038677       0.00650114
Ti       0.79424935       5.08490052      29.42899138  F       0.00213804      -0.00472550       0.00214975
V        0.05269416       2.33856083      29.46066129  F       0.00288667      -0.00187863       0.01310532
Ti       2.53624048       1.55085006      30.62002343  F       0.00827837      -0.01787947      -0.00139208
Ti       3.46548459       4.28132353      30.69310783  F      -0.00525511      -0.01253363       0.01133515
Ti       5.08744701       0.87691222      31.85285976  F       0.00994213      -0.00984132       0.00579095
Ti       0.87592912       3.58768344      31.84106881  F      -0.01443598      -0.00754138      -0.00144331
Ti       3.33188924       2.75648483      33.13870663  F       0.00079397       0.00239076       0.02329354
Ti       2.56829461       0.02251607      33.12131254  F       0.00979731       0.00634468       0.01756043
Ti       0.83203343       1.94698343      34.39117829  F       0.04513647       0.03845265      -0.05933449
Ti       0.00334332       4.70036317      34.34893551  F      -0.03244464      -0.02377021      -0.02594324
Ti       2.55071292       3.95050160      35.62060401  F       0.06780591      -0.02753069      -0.03964194
Ti       3.38030375       1.19531376      35.60944646  F      -0.07882986       0.02270755      -0.02329929
Ti       0.79079408       0.39576516      36.85124780  F      -0.01712022      -0.02771324       0.36583136
Ti       0.02376453       3.14929878      36.85685094  F       0.04816546      -0.03436227       0.22250793
Ti       2.56323637       2.35586693      38.09645975  F      -0.24726893       0.40843503       0.52749257
Ti       3.35295673       5.10680106      38.11663104  F       0.21084463      -0.33687932       0.68307279
Ti       0.82028347       4.34819576      39.32115934  F       0.03526531      -0.57212237      -0.35858410
Ti       0.02499601       1.60203744      39.31998999  F       0.06697869       0.59444857      -0.00307469
Ti       3.31111181       3.54461328      40.69841043  F      -0.10611574      -0.03077334      -1.70935917
