64
Lattice="5.088765 0.0 0.0 0.0 9.739025 0.0 0.0 0.0 38.303587" Properties=species:S:1:pos:R:3:move_mask:L:1:forces:R:3 job_name=BondOrder-VacuumGB-T2-V-V-40-d-2.77 top_level=BondOrder-VacuumGB solute=V energy=-481.84122225 stress_kbar_3x3="_JSON [[-18.28000479, -1.89477327, -0.05339439], [-1.89477328, -20.58389537, -1.06598692], [-0.0533944, -1.06598691, -20.65778227]]" pbc="T T T"
Ti       2.57972397       9.33961785       8.45766183  F       0.65384616       0.15638086       0.83713079
Ti       0.03227804       4.46507027       8.46076442  F       0.64482477       0.15642797       0.84492418
Ti       1.30319201       2.03299225       8.93078774  F      -0.72355012      -0.19780445       0.55300698
Ti       3.84541687       6.90453047       8.92205452  F      -0.71713765      -0.20525092       0.56626883
Ti       2.59420151       4.31619953       9.64258329  F      -0.05353136      -0.30130863       0.24132103
Ti       0.05479582       9.18332597       9.63040275  F      -0.07600811      -0.31196313       0.23172070
Ti       1.00693429       6.42495166      10.48200640  F       0.09987598       0.23044057      -0.74725061
Ti       3.55759123       1.55637411      10.48238944  F       0.10842538       0.22370808      -0.73568244
Ti       0.27191307       3.64944640      11.13734247  F       0.12177688       0.18958616      -0.42337451
Ti       2.82065155       8.52286425      11.12906890  F       0.12847131       0.19363995      -0.42880411
Ti       1.10383455       0.96331618      11.81956766  F      -0.05606191       0.04100476      -0.19440113
Ti       3.64893456       5.83552639      11.82872222  F      -0.07009135       0.02721752      -0.18884642
Ti       2.71918667       3.24585147      12.57342056  F      -0.00078874      -0.12411642       0.04301884
Ti       0.17695671       8.12052565      12.56277216  F       0.00195940      -0.12923062       0.03548915
Ti       3.61014800       0.60844559      13.21167323  F       0.01506749       0.06443961      -0.02071380
Ti       1.06574005       5.46745942      13.20795778  F       0.01644256       0.05820106      -0.02804980
Ti       2.76817621       7.67413744      13.89313234  F      -0.02025083      -0.04771197       0.04790095
Ti       0.22471986       2.80451781      13.90328279  F      -0.02219977      -0.05677234       0.03902789
Ti       3.60875368       5.00453434      14.65204131  F       0.00997765       0.01627932      -0.02131176
Ti       1.07241651       0.14564712      14.63438336  F       0.01303523       0.02773566      -0.02247550
Ti       0.24468309       7.22417501      15.34227195  F      -0.00618015       0.00079508      -0.00435521
Ti       2.76949420       2.33289579      15.38823626  F      -0.00015616       0.00872402      -0.01013548
Ti       1.09366211       4.55318897      16.00369829  F       0.00198596       0.00992997      -0.00171576
Ti       3.64816107       9.41700414      16.00274070  F      -0.00236913       0.00583365      -0.00908361
Ti       0.17905837       1.92591167      16.70423259  F      -0.01164194      -0.00305016       0.01241628
Ti       2.73657498       6.81004245      16.72280983  F      -0.02270609      -0.00862841       0.00190331
Ti       1.07979522       9.10497552      17.43529486  F       0.01653450      -0.00121838      -0.00315745
Ti       3.61219877       4.15354808      17.44375995  F       0.00597586       0.00440102      -0.00243996
Ti       2.87263838       1.43109129      18.16321622  F       0.00037576       0.00880631      -0.00301181
Ti       0.29093996       6.31769578      18.03528224  F       0.00492820      -0.00864463       0.00521699
Ti       3.78266731       8.44215695      18.83448659  F      -0.01503995      -0.00275867       0.00397465
Ti       1.07226385       3.57173872      18.80629515  F       0.01329837       0.00588645       0.00135049
Ti       0.04120373       0.91508853      19.81299002  F      -0.00161649       0.01082348      -0.02061234
Ti       2.66792245       5.75808166      19.57543117  F      -0.01011503       0.00903502       0.00506594
Ti       3.79436129       3.26363493      20.32441951  F       0.02087754      -0.00470963      -0.01410321
Ti       1.35512285       8.07236617      20.04518636  F       0.00572833      -0.02067520       0.00171599
Ti       2.59548388       0.77297668      20.87545492  F       0.00560121       0.00680645      -0.00725330
Ti       0.13785973       5.70406903      20.74154557  F       0.00380513       0.00248624      -0.00657686
Ti       1.26068046       3.36748215      21.58357333  F       0.00324321       0.00247767      -0.00549874
Ti       4.24464575       8.40262625      21.54737644  F      -0.00462179       0.00523993       0.01059985
V        4.60956618       1.60205987      22.42881858  F       0.00938745       0.00530563       0.00299620
Ti       2.22369871       6.59922177      22.31402273  F      -0.00930711      -0.00132972      -0.00197252
Ti       1.34901125       9.28174856      23.00647498  F       0.02651484      -0.00473652      -0.00333897
Ti       3.99395283       4.39159907      22.93036575  F       0.01579970       0.00642159       0.02396251
Ti       4.95782599       6.96516564      23.77668351  F      -0.01576881       0.00141010       0.00713390
Ti       2.35926850       2.14146551      23.74653858  F      -0.02037065      -0.01886247       0.01775259
Ti       1.45237424       4.72867646      24.33419221  F      -0.02439171       0.01043028       0.01931786
Ti       3.93515724       9.56690721      24.24310628  F      -0.02996774       0.01549450       0.01371724
Ti       2.34196669       7.38880349      25.02706580  F       0.03483104      -0.00339774       0.01588335
Ti       4.86561757       2.51240550      24.98217400  F       0.01803549      -0.01395128      -0.00707785
Ti       3.99707733       5.15016198      25.78467245  F       0.05555038      -0.00816051       0.16448855
Ti       1.45004868       0.29091442      25.78582155  F       0.06740415      -0.01964725       0.17101101
Ti       4.83230142       7.87262851      26.47693317  F      -0.11132317       0.00727134       0.17121568
Ti       2.27778210       2.97874897      26.48428746  F      -0.11388847       0.01038611       0.14305846
Ti       1.42280343       5.64853711      27.09821736  F       0.13330368       0.06097604       0.45467622
Ti       3.95737988       0.77987190      27.09503816  F       0.12141517       0.03326361       0.44965069
Ti       2.35781820       8.23329382      27.86428910  F      -0.04419359       0.28320832       0.30146118
Ti       4.90386981       3.36475523      27.84678436  F      -0.07214331       0.27472965       0.30464286
Ti       1.51993777       1.17625996      28.55501768  F      -0.29890176       0.28517613       0.15981510
Ti       4.07400419       6.04569455      28.54977009  F      -0.28717417       0.31855898       0.15559943
Ti       4.80117345       8.83259447      29.18208570  F      -0.55136396      -0.65052002      -0.37606204
Ti       2.25529994       3.96507847      29.19020606  F      -0.55310125      -0.67749230      -0.41385093
Ti       3.86629607       1.87127574      30.02503274  F       0.78412982       0.02045865      -1.17977259
Ti       1.31756777       6.73668811      30.03683025  F       0.78353367       0.02254360      -1.17750696
