52
Lattice="5.088765 0.0 0.0 0.0 5.495746 0.0 0.0 0.0 48.722931" Properties=species:S:1:pos:R:3:move_mask:L:1:forces:R:3 job_name=BondOrder-VacuumGB-C1-Al-Al-35-d-6.31 top_level=BondOrder-VacuumGB solute=Al energy=-390.92041597 stress_kbar_3x3="_JSON [[-35.69546173, -0.11561245, 0.36713306], [-0.11561245, -25.52413229, -0.01042258], [0.36713309, -0.01042258, -22.4831947]]" pbc="T T T"
Ti       2.61337598       0.80124679      40.71210158  F       0.09947952      -0.01985074      -1.70518126
Ti       0.02317932       1.59807500       9.36479095  F       0.08091966       0.58967394      -0.00183257
Ti       0.81519980       4.34778908       9.37258662  F       0.06108918      -0.57533971       0.34159993
Ti       2.56511922       2.35629560      10.58198722  F      -0.25325920       0.40791465      -0.51083207
Ti       3.36078834       5.10599319      10.58291295  F       0.20521896      -0.34922388      -0.66225387
Ti       0.80655399       0.38897241      11.82646832  F      -0.03155237      -0.03047913      -0.35082166
Ti       0.02979981       3.13505380      11.82602981  F       0.04602387      -0.03333143      -0.23128972
Ti       3.36695592       1.18384964      13.07065708  F      -0.07313149       0.02719680       0.02459303
Ti       2.55870737       3.93077187      13.06963390  F       0.05683390      -0.03794006       0.02392815
Ti       0.00553658       4.70163818      14.31197120  F      -0.03224480      -0.01261345       0.01764052
Ti       0.83020657       1.95540841      14.31167886  F       0.03725251       0.03544274       0.05141069
Ti       3.36676763       2.73726071      15.55830377  F      -0.00210572       0.01081563      -0.02211525
Ti       2.55632074       5.48497434      15.55718315  F       0.00490457       0.01032830      -0.01270694
Ti       0.82299070       3.53830416      16.80507485  F      -0.01348380      -0.00856630       0.00260779
Ti       0.01066096       0.79081037      16.80512358  F      -0.00191691      -0.00933218       0.00251926
Ti       2.54831612       1.57209112      18.05155360  F       0.00691777      -0.00401223       0.00072250
Ti       3.37348480       4.31654576      18.04936107  F      -0.00282967       0.00110801      -0.00411176
Ti       0.81773909       5.09078646      19.28848265  F       0.00162669       0.00270758      -0.00484002
Ti       0.01264558       2.34482598      19.29428068  F      -0.00048225      -0.00003958      -0.00173024
Ti       3.34562382       0.38734018      20.53627691  F      -0.00519601      -0.00070639      -0.00130711
Ti       2.56899686       3.13912065      20.53842072  F       0.00274632      -0.00297188      -0.00378110
Ti       0.01776997       3.91878016      21.77744485  F      -0.00074978      -0.00404762       0.00001858
Ti       0.81185139       1.16639515      21.77900399  F       0.00269219      -0.00137433      -0.00221181
Ti       2.57634503       4.66966943      23.00867332  F       0.00232955      -0.00463572       0.00342742
Ti       3.35814727       1.91772958      22.98367846  F       0.00072210      -0.00249040      -0.00344474
Ti       0.75929463       2.72981947      24.34212250  F       0.00050780       0.00699780       0.00108285
Ti       0.07129869       5.47397735      24.39240456  F      -0.00178216       0.00626094       0.00067819
Ti       3.33720700       1.91189859      25.73106709  F       0.00061465       0.00310281      -0.00256756
Ti       2.56363839       4.65722156      25.78894993  F      -0.00036340       0.00397848       0.00433266
Ti       0.01540369       3.90772271      26.95946963  F       0.00231913      -0.00019958       0.00192702
Ti       0.78810721       1.17358358      26.94670422  F      -0.00295220      -0.00413452       0.00071036
Ti       3.42703897       0.37919548      28.24136994  F       0.00353497      -0.00606446       0.00155308
Ti       2.57847723       3.10841042      28.22938410  F       0.00281505       0.00524302       0.00227048
Ti       0.92393144       5.17705319      29.34869599  F      -0.00566162      -0.00357197       0.00347234
Ti       0.06684093       2.40695539      29.49199013  F       0.00444740       0.00957645       0.00674923
Al       2.61412402       1.56988732      30.68156049  F      -0.00043062       0.00876724       0.01183123
Ti       3.30556506       4.32643811      30.67878329  F      -0.00065608      -0.01229420       0.00670473
Ti       0.06840318       0.72276754      31.87093596  F       0.01833410      -0.00364212      -0.00445946
Ti       0.94424070       3.46022610      32.01072205  F      -0.01096359       0.00301566      -0.01141813
Ti       3.46125073       2.77382391      33.11025244  F       0.01561906      -0.01315466       0.00217192
Ti       2.55668713       0.03090258      33.14747676  F      -0.01025710       0.00604072       0.00726574
Ti       0.78363928       1.96078325      34.41290872  F       0.02737304       0.00318625      -0.01430565
Ti       5.08848512       4.72266491      34.40506433  F      -0.04153375       0.05065748      -0.06997821
Ti       2.55751660       3.92074214      35.59127281  F       0.08443531       0.04084637      -0.02823605
Ti       3.35393886       1.18004658      35.67259138  F      -0.04112748      -0.03605261      -0.02731480
Ti       0.82088904       0.39800742      36.89037231  F      -0.04214348      -0.04386319       0.23764850
Ti       0.03079721       3.15924608      36.88082262  F       0.02814091      -0.06004559       0.35462137
Ti       2.55638690       2.37687717      38.12574223  F      -0.22249228      -0.33775498       0.68707866
Ti       3.34886536       5.11427528      38.10479137  F       0.24270538       0.39151524       0.53291817
Ti       0.78879929       4.36302329      39.34615421  F      -0.05620316       0.58241608       0.02055297
Ti       0.01305268       1.61501839      39.32914990  F      -0.08347369      -0.56417742      -0.32113250
Ti       3.30997702       3.54435498       8.00162079  F      -0.10261098      -0.02488188       1.64583514
