64
Lattice="5.088765 0.0 0.0 0.0 9.739025 0.0 0.0 0.0 38.303587" Properties=species:S:1:pos:R:3:move_mask:L:1:forces:R:3 job_name=BondOrder-VacuumGB-T2-V-V-39-d-2.12 top_level=BondOrder-VacuumGB solute=V energy=-481.52473973 stress_kbar_3x3="_JSON [[-19.64306198, -0.30130833, 0.43530458], [-0.3013083, -20.00299812, -2.10535319], [0.43530458, -2.10535322, -22.47569464]]" pbc="T T T"
Ti       2.54578191       9.27387943      29.93352547  F      -0.86401005       0.03214124      -0.93992922
Ti       0.00325681       4.40573039      29.92981002  F      -0.84577986       0.02255365      -0.92436280
Ti       1.27042036       1.88540707       8.26307961  F      -0.83417373       0.03871727       1.09804664
Ti       3.81375966       6.75757832       8.25354202  F      -0.83586248       0.04014137       1.10869137
Ti       2.73582184       4.07166235       9.04255760  F       0.74932120      -0.56198276       0.55397730
Ti       0.18431507       8.94386283       9.04251930  F       0.76286240      -0.57409532       0.55978004
Ti       1.03930392       6.22115282       9.76852549  F       0.25326498       0.16402132      -0.15429644
Ti       3.58555909       1.34640073       9.77886746  F       0.25870073       0.16970787      -0.14796440
Ti       0.22376826       3.50985696      10.41076173  F      -0.12567084       0.31660773      -0.35988714
Ti       2.76458354       8.38053814      10.41332807  F      -0.13009932       0.31661244      -0.36620465
Ti       1.11022604       0.89044879      11.16415498  F      -0.10259273       0.10036396      -0.45648298
Ti       3.65367220       5.76602871      11.15331507  F      -0.10469658       0.09944139      -0.46894163
Ti       2.75489453       3.13857611      11.83278240  F       0.11390395       0.00929076      -0.18166566
Ti       0.20505179       8.00828339      11.83722562  F       0.11193778       0.01366431      -0.17804605
Ti       3.60792930       0.47145646      12.52883518  F      -0.06285802      -0.00841008      -0.13103488
Ti       1.06541437       5.34530283      12.51106232  F      -0.06139066      -0.00420701      -0.13380835
Ti       2.75708270       7.56653095      13.22036814  F      -0.01971208      -0.01304840      -0.02124208
Ti       0.22176329       2.69165225      13.21531207  F      -0.02010030      -0.01406790      -0.02223317
Ti       3.60348680       4.90833225      13.95729085  F       0.04844107      -0.00123156       0.00032088
Ti       1.05664134       0.02477608      13.98337560  F       0.04925385       0.00669313      -0.00608253
Ti       0.20281273       7.11956814      14.63503452  F       0.00351884       0.01204985      -0.03855152
Ti       2.75899099       2.24702680      14.62902086  F      -0.00404667       0.02271937      -0.04076874
Ti       1.09618105       4.47014430      15.30994372  F      -0.02041006       0.01301456      -0.00924489
Ti       3.62972448       9.32828162      15.34070150  F      -0.01806900       0.01640797      -0.01237033
Ti       0.17940950       1.87110044      16.02606759  F      -0.00276986       0.01550674      -0.00113147
Ti       2.70439363       6.75997412      16.03775018  F      -0.00422405       0.02034221       0.00305131
Ti       0.98929154       8.92255384      16.77739245  F      -0.01182880      -0.00597000       0.00653260
Ti       3.56714793       4.07765186      16.71468947  F      -0.01451783      -0.00243395       0.01232452
Ti       2.78019078       1.34501779      17.36313090  F       0.00440211       0.00552290       0.01525041
Ti       0.19304230       6.22318828      17.37845233  F       0.01131795      -0.00290827       0.01521256
Ti       3.67789981       8.35248975      18.31011048  F       0.00700187      -0.02780037      -0.00320454
Ti       1.20307564       3.47065738      18.18305748  F       0.00718158      -0.02471472       0.01088672
Ti       5.06007454       0.88791665      18.90128804  F      -0.01363212      -0.00291349      -0.01030824
Ti       2.47437636       5.77297263      18.88363009  F      -0.00821961      -0.00551637      -0.00728917
Ti       3.77140587       3.31537837      19.39138244  F      -0.00859365      -0.00337545       0.00136347
Ti       1.11884641       8.19972340      19.51165570  F      -0.01006802      -0.01052055      -0.00358092
Ti       2.54216380       1.01187496      20.11922720  F      -0.00675490      -0.00068243       0.00132219
Ti       4.98215028       5.90832560      20.13791935  F      -0.00200420       0.00404681       0.01142341
Ti       1.53743804       3.84113963      20.93019074  F       0.01086652       0.02358325      -0.00611535
V        4.01914731       8.75128335      21.00174184  F       0.00510639       0.02591914      -0.01949839
Ti       4.84599020       1.70015133      21.56993725  F      -0.00285798       0.00102127      -0.00006552
Ti       2.35178292       6.61589498      21.55074715  F       0.01420846      -0.00746399       0.00200582
Ti       1.47189474       9.29865551      22.26426637  F      -0.00994399      -0.00034614       0.01375802
Ti       4.00514303       4.39664388      22.29437299  F      -0.00271509      -0.00136743       0.00959895
Ti       4.89901513       7.04434391      22.91029467  F      -0.00648919      -0.00351391       0.00435463
Ti       2.35966542       2.16406979      23.01214391  F      -0.00528623      -0.01352237      -0.00023433
Ti       1.48530364       4.84549606      23.63932684  F       0.00116230       0.00695188       0.02864893
Ti       4.03575704       9.68909302      23.64242943  F      -0.00272019       0.02616956       0.01699400
Ti       2.33960042       7.51198268      24.34200615  F       0.00748437      -0.04258848      -0.04177820
Ti       4.90722840       2.62632287      24.36621401  F       0.00556378      -0.03491193      -0.03602285
Ti       4.03465786       5.28802762      25.07077019  F      -0.00735230       0.03454469       0.02413246
Ti       1.48762921       0.41122059      25.08727904  F       0.00002253       0.04172927       0.02007711
Ti       4.89390601       7.95551735      25.74227038  F      -0.01832978      -0.09727997       0.02533628
Ti       2.35033262       3.09538353      25.75314859  F      -0.02469974      -0.09609243       0.03115822
Ti       1.45702537       5.72559228      26.42790458  F       0.05390285       0.02254150       0.19096313
Ti       3.99590692       0.85236921      26.43349691  F       0.05285478       0.02096360       0.18918374
Ti       2.32437992       8.36204373      27.17053453  F      -0.06114285       0.25077448       0.43692126
Ti       4.86820775       3.49407000      27.18014873  F      -0.05949104       0.25726593       0.44407077
Ti       1.53226785       1.36004510      27.82046979  F      -0.07995495       0.24556116       0.68756091
Ti       4.07818207       6.22870057      27.81150675  F      -0.07953076       0.25196524       0.68685046
Ti       4.94056999       8.97822211      28.56068661  F       0.16338078      -0.12220934      -0.12476524
Ti       2.40243140       4.11451406      28.56329125  F       0.13780742      -0.13498701      -0.11870331
Ti       3.81559671       1.90880994      29.34380345  F       0.82739949      -0.41581965      -0.62518190
Ti       1.27136687       6.77973460      29.33499362  F       0.83173153      -0.41457653      -0.61880123
