64
Lattice="5.871999 0.0 0.0 0.0 6.890708 0.0 0.0 0.0 43.401158" Properties=species:S:1:pos:R:3:move_mask:L:1:forces:R:3 job_name=BondOrder-VacuumGB-T1m-Al-Al-41-d-3.20 top_level=BondOrder-VacuumGB solute=Al energy=-479.92839459 stress_kbar_3x3="_JSON [[-18.6183514, -0.0003664, 0.00030104], [-0.00036646, -22.80947336, 1.50876273], [0.00030105, 1.50876269, -20.75270793]]" pbc="T T T"
Ti       2.93604060       0.10054921       8.00477938  F      -0.00016908      -0.12046290       1.00321062
Ti       2.93602299       2.93914192      35.39733345  F       0.00000409       0.16618043      -1.55664891
Ti       0.00002349       0.10326415       8.00030906  F      -0.00008854      -0.13204843       1.01435518
Ti       0.00002936       2.93873537      35.39798446  F      -0.00002246       0.16447602      -1.56542370
Ti       4.40754594       5.02474562       9.40958806  F      -0.00885009       0.40339349      -0.30587569
Ti       1.46448829       5.02474562       9.40958806  F       0.00892078       0.40333514      -0.30591917
Ti       4.40411669       1.32465592      10.02640532  F       0.00031300      -0.49332522      -0.67252996
Ti       1.46791754       1.32465592      10.02644872  F      -0.00026673      -0.49337667      -0.67298775
Ti       2.93601124       3.41228549      11.20891327  F       0.00010038       0.24844635       0.57759417
Ti       0.00003523       3.41306414      11.20726402  F      -0.00010586       0.24058783       0.57651795
Ti       2.93599950       6.23132237      11.61380267  F       0.00014141      -0.03326015      -0.37121686
Ti       0.00002936       6.23081935      11.61558212  F      -0.00008333      -0.02724025      -0.36703389
Ti       1.46798213       1.49221727      12.83636989  F       0.00004727      -0.00267302       0.04703033
Ti       4.40404623       1.49222416      12.83641329  F      -0.00001599      -0.00276042       0.04669819
Ti       1.46652588       4.44203290      13.44190285  F       0.00163582      -0.02264672      -0.03223196
Ti       4.40552597       4.44203290      13.44194625  F      -0.00159205      -0.02266189      -0.03267776
Ti       2.93601712       6.59462806      14.60349144  F      -0.00004685       0.01342852      -0.03985875
Ti       0.00000587       6.59723275      14.60014955  F       0.00007477       0.01078818      -0.03220554
Ti       2.93601712       2.52113779      15.10368979  F      -0.00003305       0.01495896       0.03016576
Ti       0.00001174       2.52157879      15.10829031  F       0.00004075       0.01499272       0.02670322
Ti       4.40492115       4.67415329      16.27031291  F      -0.00322193       0.00302696       0.00546758
Ti       1.46707785       4.67416018      16.27031291  F       0.00323608       0.00289978       0.00526636
Ti       4.40828581       0.73989666      16.87506465  F      -0.00516027       0.01300601       0.00570706
Ti       1.46371906       0.73989666      16.87506465  F       0.00517556       0.01299155       0.00558196
Ti       5.87198726       2.89311199      18.09945472  F       0.00002594      -0.01917785      -0.02142512
Ti       2.93598776       2.88280349      18.09225013  F       0.00001430      -0.01197752      -0.01739386
Ti       5.87199313       5.71059157      18.51749467  F      -0.00007723       0.01219518      -0.00395992
Ti       2.93597601       5.71108081      18.50108903  F       0.00012864       0.01174542       0.00287419
Ti       1.45407724       0.90902909      19.67917007  F       0.00208340      -0.00529936      -0.00235041
Ti       4.41789240       0.90903598      19.67921347  F      -0.00201852      -0.00538576      -0.00277026
Ti       1.47832272       4.10844683      20.30701122  F       0.00126819      -0.00654769      -0.00138315
Ti       4.39364104       4.10843994      20.30705462  F      -0.00118676      -0.00639256      -0.00182989
Ti       2.93601712       2.12909785      21.70826100  F      -0.00013230       0.01486965       0.01233991
Ti       0.00000000       2.14159070      21.73477911  F       0.00009185      -0.01896790      -0.00623678
Ti       2.93599363       6.19038467      21.67262865  F      -0.00000814      -0.00736875       0.01945955
Ti       5.87198726       6.19108753      21.73942304  F       0.00002738       0.00440867       0.00540555
Ti       4.37679428       4.06051507      23.14718300  F      -0.00377766       0.01093466       0.01765644
Ti       1.49523408       4.06054952      23.14722640  F       0.00379332       0.01062224       0.01712861
Ti       4.42613669       0.90277922      23.72424479  F      -0.00105631      -0.01273203      -0.00996595
Ti       1.44589167       0.90275855      23.72424479  F       0.00105393      -0.01256897      -0.01007693
Ti       2.93601124       5.65388793      24.90788118  F       0.00020788      -0.00777865      -0.01781593
Al       0.00003523       5.70902738      24.86625946  F      -0.00027739      -0.00648114      -0.01031833
Ti       2.93599950       2.81372414      25.33191049  F       0.00012743       0.02297746      -0.00282748
Ti       0.00000587       2.92197027      25.32722316  F      -0.00000091       0.00030076      -0.01558271
Ti       4.44177969       0.68628006      26.52492152  F      -0.01033521      -0.01002095       0.03958102
Ti       1.43026628       0.68628006      26.52492152  F       0.01036626      -0.01002065       0.03958651
Ti       4.42851485       4.68615690      27.10779907  F      -0.00752489      -0.00335417      -0.00351768
Ti       1.44354287       4.68617068      27.10775567  F       0.00741475      -0.00358295      -0.00320613
Ti       0.00003523       2.53826809      28.25593331  F      -0.00018577       0.03303004      -0.01711729
Ti       2.93604060       2.52303962      28.29568877  F      -0.00005833       0.03996834      -0.03945108
Ti       0.00002936       6.61967578      28.83868065  F      -0.00002916       0.03481131      -0.00492362
Ti       2.93602886       6.58555989      28.78021929  F       0.00007736       0.01409624       0.02778456
Ti       1.46649065       4.43605865      29.94302312  F       0.01651967      -0.11971666      -0.02764854
Ti       4.40556707       4.43604487      29.94302312  F      -0.01655751      -0.11966448      -0.02763581
Ti       1.46078894       1.50421399      30.55033552  F       0.00624371       0.06503096       0.05954091
Ti       4.41126291       1.50422777      30.55033552  F      -0.00625270       0.06498054       0.05944189
Ti       2.93602886       6.23266606      31.76613216  F       0.00005307       0.01700851       0.05063065
Ti       0.00002936       6.23821997      31.77863170  F      -0.00010352       0.00894214       0.05947802
Ti       2.93603473       3.41063172      32.18668938  F       0.00003730      -0.18263703       0.37890080
Ti       0.00003523       3.41426313      32.18760081  F      -0.00006933      -0.19556237       0.39417203
Ti       4.40162696       1.32087293      33.36902373  F       0.01444051       0.07628929       0.54624058
Ti       1.47041901       1.32087293      33.36906713  F      -0.01446514       0.07636180       0.54605451
Ti       4.40354711       5.03350371      33.98115366  F      -0.00951703      -0.05773814       0.29069570
Ti       1.46849300       5.03349682      33.98115366  F       0.00962524      -0.05765392       0.29077697
