64
Lattice="5.872 0.0 0.0 0.0 6.890708 0.0 0.0 0.0 43.394398" Properties=species:S:1:pos:R:3:move_mask:L:1:forces:R:3 job_name=BondOrder-VacuumGB-T1g-Al-Al-32-d-0.00 top_level=BondOrder-VacuumGB solute=Al energy=-482.14684229 stress_kbar_3x3="_JSON [[-16.85040715, -0.00083407, -9.98e-06], [-0.0008341, -26.6029896, -1.24117451], [-1.003e-05, -1.24117451, -17.66743253]]" pbc="T T T"
Ti       4.40393541       5.21279304      34.65224937  F       0.00014854      -0.28567566      -0.44571794
Ti       1.46804698       5.21349589      34.65259652  F      -0.00010221      -0.28717500      -0.45191564
Ti       0.00201410       3.19102486       8.54908696  F      -0.00807300       0.16957027       0.94633911
Ti       2.93395067       3.19102486       8.54913035  F       0.00810189       0.16976144       0.94630038
Ti       5.86579330       6.63314712       9.16841180  F       0.02926805      -0.20888825       0.13338147
Ti       2.94218909       6.63318157       9.16841180  F      -0.02924957      -0.20888649       0.13359557
Ti       4.40404698       1.76885163      10.45531607  F      -0.00002958       0.03764137      -0.49018917
Ti       1.46792366       1.76546141      10.45275580  F      -0.00007560       0.03781265      -0.50430867
Ti       1.46797064       4.59821079      10.67445778  F      -0.00015259       0.12609580      -0.35006167
Ti       4.40401174       4.59727366      10.67311255  F       0.00011800       0.12391140      -0.35038437
Ti       0.00063418       6.72915535      11.98956841  F       0.00793804      -0.09991701       0.01908465
Ti       2.93529536       6.72914157      11.98961180  F      -0.00788473      -0.09990050       0.01884416
Ti       2.93361597       2.87591278      12.59448631  F      -0.00045220      -0.05796808       0.11716254
Ti       0.00231944       2.87589900      12.59448631  F       0.00047421      -0.05793548       0.11750386
Ti       4.40397064       5.00734658      13.74895088  F       0.00018746       0.05540965      -0.07673448
Ti       1.46796477       5.00457652      13.75472233  F      -0.00013705       0.06554194      -0.09067162
Ti       4.40397064       0.94056786      14.22780806  F       0.00005319       0.01783478       0.04281921
Ti       1.46794715       0.93506908      14.24191124  F      -0.00004097       0.01704896       0.04562169
Ti       2.94356901       3.10526311      15.41980878  F      -0.00269174      -0.03194106      -0.02565220
Ti       5.86438402       3.10527000      15.41985217  F       0.00277796      -0.03195847      -0.02615669
Ti       2.93414445       6.02192754      16.02455311  F       0.00126783      -0.00088098      -0.03965120
Ti       0.00179096       6.02193443      16.02459650  F      -0.00117359      -0.00093803      -0.03994065
Ti       4.40402349       1.31704858      17.14937930  F      -0.00006005       0.00745839       0.00205279
Ti       1.46800587       1.27967338      17.20969751  F       0.00002927       0.01284002       0.00601367
Ti       4.40402936       4.13924140      17.70986135  F      -0.00030907       0.00125509       0.03621078
Ti       1.46798826       4.10985254      17.67137051  F       0.00013989       0.00928162       0.03414463
Ti       2.95957608       6.25785849      18.85881482  F      -0.00103777      -0.00484791       0.00716290
Ti       5.84852962       6.25785160      18.85877143  F       0.00102156      -0.00461747       0.00762889
Ti       2.96910046       2.35239813      19.44680891  F       0.00576447      -0.00517785      -0.01245089
Ti       5.83894064       2.35241191      19.44685231  F      -0.00572295      -0.00535239      -0.01242870
Ti       1.46804698       4.45466356      20.73032842  F      -0.00005568      -0.00855063      -0.00056639
Ti       4.40409395       4.55776923      20.72646632  F      -0.00013353       0.00019908      -0.00558369
Al       4.40404698       0.47062157      21.00848651  F       0.00008551       0.00066219       0.00021930
Ti       1.46803523       0.39821402      20.95697736  F      -0.00004327       0.00521736       0.00050212
Ti       5.85666234       2.48285302      22.24652868  F      -0.00046054       0.00114132      -0.00974416
Ti       2.95146098       2.48283923      22.24644190  F       0.00033485       0.00137607      -0.00916717
Ti       0.03123904       5.89491111      22.82749288  F       0.00692692      -0.00371999      -0.01158596
Ti       2.90487840       5.89491111      22.82744949  F      -0.00686852      -0.00362390      -0.01143615
Ti       4.40400000       3.93411881      24.10932001  F       0.00020031      -0.01082687       0.00576008
Ti       1.46812331       3.90328289      24.13969609  F      -0.00024918      -0.01338692       0.01078036
Ti       4.40405872       1.08186183      24.34139325  F      -0.00007583      -0.00309230       0.00618028
Ti       1.46807634       1.06948612      24.35766615  F       0.00004797       0.00880833       0.00577936
Ti       0.00394011       5.85373913      25.65724158  F       0.00228967      -0.00186916       0.00055714
Ti       2.93215971       5.85373913      25.65724158  F      -0.00228350      -0.00187533       0.00038604
Ti       2.94776749       2.79407873      26.27101194  F       0.00291362       0.00046404      -0.00017070
Ti       5.86034995       2.79405117      26.27101194  F      -0.00291210       0.00054006      -0.00048130
Ti       4.40401174       0.67135479      27.42026918  F       0.00006530      -0.01696352       0.00232980
Ti       1.46803523       0.67173378      27.43428557  F      -0.00003159      -0.01738380      -0.01137439
Ti       1.46802936       4.73329623      27.90906368  F      -0.00004350      -0.00050252      -0.02219025
Ti       4.40402349       4.73860897      27.90967120  F      -0.00009632       0.00741035      -0.03080097
Ti       2.93721550       2.58184493      29.09195157  F      -0.00147702      -0.02892118      -0.03687233
Ti       5.87075514       2.58185182      29.09195157  F       0.00159104      -0.02899595      -0.03688906
Ti       2.93584733       6.53869618      29.69226968  F       0.00335881       0.02864909       0.00415361
Ti       0.00015854       6.53869618      29.69226968  F      -0.00328337       0.02853542       0.00442439
Ti       4.40397064       4.38124307      30.87702353  F       0.00011093       0.02057444       0.02619686
Ti       1.46800000       4.38075383      30.87784802  F      -0.00008571       0.01817684       0.02158334
Ti       4.40397651       1.56137931      31.35765988  F       0.00024456       0.01758963      -0.02782855
Ti       1.46801174       1.55927075      31.35644484  F      -0.00023541       0.01406061      -0.02852365
Ti       2.93799061       6.32401617      32.51481490  F      -0.00627435      -0.08865196       0.74272439
Ti       5.86998590       6.32398861      32.51485829  F       0.00629738      -0.08843731       0.74260765
Ti       0.00086318       3.27992877      33.12350812  F      -0.00016819       0.28862378       0.23988642
Ti       2.93514269       3.27990121      33.12346473  F       0.00021926       0.28866312       0.24026919
Ti       1.46801174       1.15358032      34.44078847  F       0.00000649       0.06284573      -0.75136953
Ti       4.40398826       1.15170604      34.44026773  F      -0.00001268       0.06386114      -0.75735851
