100
Lattice="4.4265 -2.555641 0.0 3.767997 6.526363 -0.031456 0.0 0.0 61.781652" Properties=species:S:1:pos:R:3:move_mask:L:1:forces:R:3 job_name=BondOrder-VacuumGB-CSL13-V-V-63-d-5.77 top_level=BondOrder-VacuumGB solute=V energy=-760.98890391 stress_kbar_3x3="_JSON [[-36.07207833, -1.5364773, -0.4525746], [-1.53647733, -39.20485934, -0.42157385], [-0.4525746, -0.42157382, -24.12134523]]" pbc="T T T"
Ti       2.48827075      -0.87965270       8.01718334  F       0.11246550      -0.02096238       1.76273640
Ti       5.78028428       1.57068924       8.00164040  F      -0.07497178       0.08631204       1.76163468
Ti       5.00229562      -0.78820647       9.38284964  F       0.42079462      -0.00964785      -0.12729195
Ti       4.60220824       3.79344030       9.36712255  F      -0.21886365       0.35829422      -0.12768968
Ti       7.11280423       3.87789462      10.62352954  F      -0.14413916      -0.05149563      -0.98648176
Ti       3.82005224       1.42814436      10.63907189  F       0.02649891      -0.15095710      -0.98501117
Ti       1.67409732      -0.42610550      10.87760997  F       0.30989471      -0.25791953      -0.12128827
Ti       2.15353470       3.64813898      10.86194324  F      -0.37903362       0.13801340      -0.12237870
Ti       4.74178080       3.66593784      12.16383864  F       0.03947817      -0.12935633      -0.33472703
Ti       4.82186575      -0.73116427      12.17956648  F      -0.13153780      -0.02980044      -0.33554051
Ti       3.45188450       5.88144966      13.24662037  F      -0.08200435       0.03616064       0.03910754
Ti       2.95896967       1.81520393      13.26234809  F       0.07334852      -0.05355029       0.03805101
Ti       2.41364461      -0.94355613      13.75696200  F       0.04109712      -0.04161324       0.00980343
Ti       5.76191669       1.47421792      13.74117225  F      -0.05685991       0.01484065       0.00926516
Ti       4.28034209       3.77117455      14.95058843  F      -0.00434954       0.02167361      -0.02899666
Ti       5.14375969      -1.07826320      14.96631656  F       0.02136355       0.00548617      -0.02945103
Ti       6.92819012       3.59827758      15.84609304  F      -0.00260194      -0.00487944      -0.01450623
Ti       3.67008387       1.12847238      15.86169735  F      -0.00451991      -0.00422096      -0.01493696
Ti       6.37827426       0.89095912      16.60835403  F      -0.00590900      -0.00214356       0.00599229
Ti       1.60042830      -0.70156317      16.62432954  F       0.00181175      -0.00736016       0.00540349
Ti       4.79098106       3.17987739      17.67820803  F      -0.00259749       0.00264628       0.01339297
Ti       4.37638938      -0.93159693      17.69381222  F       0.00273928      -0.00189247       0.01374326
Ti       3.17269778       5.40865860      18.47607236  F      -0.00114813      -0.00293745       0.00693095
Ti       2.68945343       1.33667299      18.49161530  F      -0.00288978      -0.00312663       0.00687750
Ti       5.89580319       5.19233787      19.43558266  F      -0.00208570      -0.00561297      -0.00335081
Ti       5.56708974       1.03116861      19.45131082  F      -0.00483166      -0.00355194      -0.00201100
Ti       0.58480272       0.90635836      20.36639654  F       0.00388864       0.00225083      -0.00202723
Ti       3.85184776       3.37086352      20.35085451  F      -0.00020513       0.00392922      -0.00116152
Ti       3.29558100       0.64684079      21.18263172  F       0.00612201       0.00149587      -0.00077437
Ti       6.69819580       3.03308342      21.16690432  F      -0.00154023       0.00463192      -0.00064110
Ti       5.08356454       5.35293519      22.28168060  F      -0.00196441      -0.00105575      -0.00319390
Ti       6.11125014       0.40783059      22.29815309  F       0.00055275       0.00069779      -0.00344099
Ti       4.53241218       2.62810031      22.96480342  F      -0.00040390      -0.00042914       0.00388225
Ti       4.02708852      -1.43137276      22.98028542  F      -0.00240165      -0.00033001      -0.00022362
Ti       7.15014104       2.50542461      23.91393938  F      -0.00059180       0.00003006       0.00026133
Ti       2.61160956       0.77362020      23.92985713  F      -0.00004706       0.00436106       0.00124334
Ti       5.73839330       4.78518741      25.16546885  F       0.00153954       0.00436004      -0.00247743
Ti       5.28993469       0.69361425      25.18113356  F       0.00622486       0.00371054      -0.00498812
Ti       3.60460682       2.93128255      25.56566287  F       0.00129882       0.00398139       0.00573832
Ti       0.32503559       0.47458370      25.58101748  F       0.00362659       0.00294747       0.00332247
Ti       2.86406979       0.50415719      26.72950739  F       0.00991582       0.00878776       0.00079052
Ti       6.78925423       2.59233145      26.71327259  F       0.00157065       0.00872297       0.00391232
Ti       4.91450009       5.19672129      28.03972138  F       0.00374303       0.01034151      -0.00409647
Ti       1.63030925       2.74108845      28.05322832  F       0.00458079       0.01911580       0.00158608
Ti       4.38300090       2.40661449      28.20462929  F       0.00091890       0.01543729      -0.00063949
Ti       3.90751785      -1.66829448      28.22257608  F       0.00922954       0.01185502      -0.00040485
Ti       6.87772655       2.51498984      29.50299446  F       0.00779121       0.01050581      -0.00100054
Ti       2.74508392       0.54432916      29.52072020  F       0.00137641       0.01403457      -0.00599046
Ti       3.58107384       2.87177405      30.87890205  F       0.00466061       0.00018551       0.00788851
Ti       0.28041214       0.42728661      30.90908412  F       0.00759204       0.01062437      -0.00085930
Ti       5.72338026       4.73416943      30.89617996  F       0.00308502      -0.00178028      -0.00373664
Ti       5.24444202       0.65304080      30.90315931  F       0.01425584       0.01644680       0.00587188
Ti       2.74247287       0.56647736      32.30051102  F       0.01016507       0.00980184      -0.00915556
Ti       6.90544291       2.52651165      32.27806499  F       0.01063354       0.00144993       0.00064394
Ti       3.92557210      -1.63172830      33.61081656  F       0.00166452       0.00601460      -0.00609429
Ti       4.38786453       2.44289503      33.52376466  F       0.01411117      -0.00253385       0.01119156
Ti       1.64513626       2.77688993      33.77312221  F       0.01379871       0.01534900      -0.00656119
Ti       4.93920750       5.22224987      33.75851971  F       0.00022038       0.00086837      -0.00325509
Ti       2.92623142       0.55214497      35.09240108  F      -0.00350037      -0.01031833      -0.00525449
Ti       6.74654490       2.66726879      35.05917421  F       0.01222557       0.00763635       0.00280107
Ti       0.35728829       0.42693333      36.20311828  F       0.00318852       0.01445423       0.00166964
Ti       3.79715048       3.11504809      36.18863139  F      -0.00664044      -0.01875798       0.00179536
Ti       5.37806343       0.65505487      36.62966160  F       0.00337650       0.01875554      -0.00264919
V        5.84839210       4.90090220      36.52955587  F      -0.00676882      -0.00063947      -0.00025824
Ti       7.12776001       2.57222795      37.83846402  F      -0.00021401      -0.00062875      -0.00237485
Ti       2.60195020       0.82237545      37.82754544  F       0.01364572       0.00059017      -0.00362641
Ti       4.54333248       2.63501353      38.76084129  F       0.00475445       0.00228011      -0.00549041
Ti       4.06445718      -1.35134515      38.74912878  F      -0.00805105      -0.00429214       0.01188479
Ti       6.14944737       0.46016924      39.49159436  F      -0.00842855      -0.00018868      -0.00189902
Ti       5.13328060       5.35280838      39.32559054  F      -0.00499345       0.01333338       0.00623049
Ti       3.30842954       0.66857377      40.55539896  F       0.01724470       0.01194405       0.00890725
Ti       6.69716817       3.10545801      40.55496287  F       0.00131244       0.00216165       0.00639478
Ti       3.90075079       3.44143847      41.35761820  F      -0.00299018      -0.00354635      -0.01126408
Ti       0.60649799       0.93412200      41.36058297  F       0.01575580       0.00628254       0.00718150
Ti       5.91321552       5.25834744      42.27919710  F      -0.00393042      -0.00342629       0.00535018
Ti       5.59100697       1.07748084      42.31030473  F      -0.00548334      -0.00794007      -0.00507658
Ti       3.20258516       5.46791819      43.22398102  F       0.00138974      -0.01112613       0.01855643
Ti       2.70665634       1.40978232      43.21688828  F      -0.01021426      -0.00430578       0.00861253
Ti       4.80095943       3.24932618      44.02842855  F       0.00383516       0.01038243       0.00052870
Ti       4.43194437      -0.88239665      44.04672921  F      -0.00017581       0.00737916       0.00047104
Ti       6.41173303       0.93915909      45.16216854  F      -0.01475348       0.00165075      -0.01797697
Ti       1.62607099      -0.64248956      45.18411387  F      -0.00150330      -0.01487150      -0.01548420
Ti       6.97013013       3.66597210      45.82011777  F      -0.01656371      -0.00916240      -0.00745228
Ti       3.70306783       1.20322597      45.82348249  F      -0.00504822      -0.02225364      -0.00891676
Ti       4.35940180       3.78533699      46.77669601  F       0.01433539       0.00600246      -0.01612043
Ti       5.10787995      -0.99784485      46.79328945  F      -0.00179006       0.01550557      -0.00807530
Ti       5.75969900       1.50433612      48.05268229  F       0.04237018      -0.02533311      -0.00451707
Ti       2.43986382      -0.92852459      48.06840545  F      -0.04925243       0.02223912       0.00060799
Ti       3.46727196       5.91665781      48.41109454  F      -0.01751123      -0.07379517       0.02867449
Ti       2.98145504       1.84704506      48.42323628  F      -0.06145574      -0.05379441       0.03013918
Ti       4.70139061       3.70239687      49.58147799  F       0.01139863       0.02159359       0.38493594
Ti       4.87604941      -0.74839379      49.59831460  F       0.00802915       0.02302728       0.39215505
Ti       2.15601401       3.64886560      50.92498906  F       0.16638228      -0.02641451       0.47132031
Ti       1.67391466      -0.42434669      50.94003979  F      -0.10468434       0.13324222       0.47160930
Ti       7.11743028       3.88036655      51.05225017  F       0.48572129      -0.13685164       0.16289221
Ti       3.82009112       1.43328209      51.06507406  F      -0.36280685       0.34805477       0.16624212
Ti       4.62642840       3.77895208      52.37079929  F       0.14440752      -0.22713762       0.14618174
Ti       4.97787510      -0.77405506      52.38627724  F      -0.26612513       0.01082590       0.14694195
Ti       3.49491333       5.98601167      53.73333725  F       0.05088165      -0.09059658      -1.39393604
Ti       3.02829154       1.90470748      53.74832315  F      -0.10393047      -0.00016771      -1.39659902
