64
Lattice="5.088765 0.0 0.0 0.0 9.739025 0.0 0.0 0.0 38.303587" Properties=species:S:1:pos:R:3:move_mask:L:1:forces:R:3 job_name=BondOrder-VacuumGB-T2-V-V-50-d-6.29 top_level=BondOrder-VacuumGB solute=V energy=-481.53819515 stress_kbar_3x3="_JSON [[-16.7778463, 4.61461159, 1.16127184], [4.61461158, -23.05835952, 0.43013616], [1.16127181, 0.43013615, -20.1769137]]" pbc="T T T"
Ti       2.52414448       9.37922646      29.76200201  F      -0.48667710      -0.02458994      -0.88565796
Ti       5.06086330       4.51809926      29.77468050  F      -0.51124917       0.01649411      -0.88449028
Ti       1.22528301       1.90815743       8.21776647  F      -0.74494273       0.04223428       1.22404685
Ti       3.75498443       6.77851722       8.21458727  F      -0.73324580       0.05108035       1.22895662
Ti       2.83192826       4.01334507       9.10369013  F       0.44520907      -0.72481117       0.33473695
Ti       0.29204422       8.88465929       9.09185432  F       0.45555430      -0.73816330       0.35608751
Ti       0.97152157       6.06866891       9.72727253  F       0.26152418       0.37219673      -0.22761350
Ti       3.52255509       1.18861878       9.73336280  F       0.26374794       0.40938541      -0.22936837
Ti       0.15055111       3.38868401      10.42585335  F       0.10203504       0.26750138      -0.24892555
Ti       2.69398201       8.25402821      10.42470424  F       0.09880072       0.27661804      -0.25019551
Ti       1.10505585       0.81495187      11.18028080  F      -0.13803741       0.04092104      -0.47163827
Ti       3.64713314       5.68395794      11.18560499  F      -0.13789722       0.02868198      -0.47202254
Ti       2.75967797       3.03279082      11.80340355  F       0.13469116       0.00201457      -0.12788157
Ti       0.21293428       7.90540033      11.79823256  F       0.13731650       0.00898303      -0.11858093
Ti       3.60142077       0.35907785      12.48857811  F      -0.03924650      -0.02183254      -0.15029026
Ti       1.05746572       5.23249570      12.48543722  F      -0.05011726      -0.02816801      -0.15021427
Ti       2.74692552       7.44250447      13.26269361  F      -0.05045201      -0.00274998      -0.00802379
Ti       0.20285853       2.57645906      13.25962932  F      -0.05019836      -0.01298261      -0.00495652
Ti       3.59147223       4.77644638      13.96069987  F       0.03915540       0.00740959      -0.02831682
Ti       1.05264666       9.64532584      13.95644817  F       0.01775437       0.01043180      -0.02148710
Ti       0.16897753       6.98897755      14.58033700  F       0.01117462       0.02364277      -0.04634367
Ti       2.71533447       2.12237702      14.58018378  F      -0.00196763       0.01119674      -0.03950162
Ti       1.10352413       4.40803854      15.31680007  F      -0.00465128      -0.00963866      -0.03687908
Ti       3.64884297       9.27677192      15.31388899  F      -0.00712927      -0.00947002      -0.03892141
Ti       0.26995898       1.72930997      16.03192804  F       0.02089195      -0.00500864       0.00489584
Ti       2.81845321       6.59946525      16.03893759  F       0.00908608      -0.00848904      -0.00186949
Ti       0.97677318       8.66857955      16.66550767  F      -0.01250211      -0.00685255       0.01894767
Ti       3.52151189       3.79970008      16.67113830  F      -0.00361574      -0.00783596       0.02467461
Ti       2.60565632       1.01246904      17.49849577  F      -0.00993186      -0.00760424       0.01890479
Ti       0.06797063       5.87875792      17.50565855  F      -0.00991653       0.00793791       0.01406264
Ti       3.85500410       8.14677232      18.24893965  F       0.01013250      -0.02562657      -0.00589195
Ti       1.30794491       3.27713322      18.25116126  F      -0.00307724      -0.01049065      -0.00204642
Ti       0.03147401       0.84711013      18.70743359  F       0.00711182      -0.00066678       0.00964451
Ti       2.58328102       5.71694402      18.71436654  F       0.00017303      -0.00631273       0.00565393
Ti       3.86095287       3.43311344      19.42478316  F      -0.00586412       0.00677304      -0.00577206
Ti       1.31766954       8.30328820      19.41298566  F      -0.00499472      -0.00166865      -0.01815606
Ti       2.30730712       1.30345163      20.26340190  F      -0.00106648      -0.00089793      -0.00873881
Ti       4.86888964       6.17277909      20.27811048  F      -0.01327224       0.00278816      -0.00142088
Ti       1.51766818       4.04607794      20.93834940  F      -0.00439685       0.02329140       0.00571068
Ti       4.06513957       8.90945485      20.93076529  F      -0.00102969       0.02483180      -0.00342604
Ti       4.93208701       1.85574200      21.56346394  F       0.00970791       0.01174219       0.01134571
Ti       2.38809126       6.71640172      21.54710831  F       0.00175562       0.00261340       0.01838123
Ti       1.42715941       9.28261533      22.32926756  F      -0.00217635      -0.00143618       0.00680703
Ti       3.97869163       4.42895797      22.35585025  F      -0.01402236       0.00616717       0.02266044
Ti       4.81370707       7.07355125      23.02520543  F       0.00483394       0.01768575       0.00554079
Ti       2.27578731       2.22848370      22.96970353  F       0.01872337       0.00697491       0.00979279
Ti       1.55993547       5.01130296      23.68031168  F      -0.00258031      -0.01034235      -0.00957542
Ti       4.06361294       0.11991661      23.65353747  F      -0.02778321      -0.00639019      -0.00212297
Ti       2.45037774       7.62022220      24.46415628  F       0.05067810      -0.02341239      -0.08103369
Ti       4.94988751       2.82946919      24.46951879  F       0.04791792      -0.05767153      -0.08273533
V        3.94166068       5.42397467      25.23302419  F      -0.00404640       0.04447070       0.02366061
Ti       1.42984628       0.52921862      25.15243344  F      -0.00615795       0.04236005      -0.00439972
Ti       4.98450129       7.99099662      25.62981104  F      -0.03827903      -0.08142581      -0.02893827
Ti       2.45656059       3.14596803      25.63176453  F      -0.04115514      -0.07199456      -0.04328157
Ti       1.35295504       5.64726130      26.39741493  F       0.11828993       0.04007396       0.19767156
Ti       3.94454092       0.82386308      26.40959547  F       0.09250474       0.02866824       0.17514792
Ti       2.19154280       8.37108155      27.15283827  F      -0.20240544       0.30267979       0.38150485
Ti       4.71262385       3.53692171      27.14605854  F      -0.14936180       0.21390949       0.40807620
Ti       1.64103511       1.61607433      27.79216344  F      -0.09141740       0.12615537       0.74083991
Ti       4.15405556       6.47397791      27.76879825  F      -0.10743343       0.13151585       0.68059476
Ti       5.06987042       9.27013964      28.64288611  F       0.13898327      -0.22598498      -0.21527321
Ti       2.51284742       4.38871631      28.65732656  F       0.13585614      -0.22524003      -0.22063684
Ti       3.77803144       2.09679260      29.41726973  F       0.52983431      -0.10036838      -0.37260254
Ti       1.21715626       6.95701407      29.39516856  F       0.54885426      -0.15130461      -0.37911612
