64
Lattice="5.872 0.0 0.0 0.0 6.890708 0.0 0.0 0.0 43.394398" Properties=species:S:1:pos:R:3:move_mask:L:1:forces:R:3 job_name=BondOrder-VacuumGB-T1g-Al-Al-30-d-0.22 top_level=BondOrder-VacuumGB solute=Al energy=-482.03510224 stress_kbar_3x3="_JSON [[-17.01732624, 0.00027287, -0.00071777], [0.0002729, -26.23114559, -2.01910444], [-0.00071776, -2.01910446, -18.65935208]]" pbc="T T T"
Ti       4.40402349       5.21138733      34.65307386  F      -0.00001622      -0.28081753      -0.46110016
Ti       1.46798238       5.21182145      34.65198900  F       0.00009151      -0.28048301      -0.45379725
Ti       5.86958661       3.18652523       8.54999824  F       0.00503453       0.15857270       0.96341739
Ti       2.93833706       3.18652523       8.54999824  F      -0.00504726       0.15838774       0.96359540
Ti       0.00274222       6.63089385       9.17127583  F      -0.01328832      -0.20373890       0.15100046
Ti       2.93322842       6.63088696       9.17127583  F       0.01320995      -0.20390988       0.15075359
Ti       4.40391192       1.76180244      10.46173844  F      -0.00061908       0.03685929      -0.51221814
Ti       1.46804698       1.76459318      10.46178184  F       0.00055704       0.04383797      -0.51751946
Ti       1.46796477       4.59329083      10.67584640  F       0.00070262       0.11173122      -0.36160173
Ti       4.40395302       4.59089286      10.67628035  F      -0.00068469       0.12116004      -0.34886659
Ti       0.00036994       6.71881929      11.99529647  F       0.00112607      -0.09595987       0.01566496
Ti       2.93558309       6.71883307      11.99525307  F      -0.00079762      -0.09615997       0.01572057
Ti       2.93838990       2.87496186      12.60668014  F      -0.00437648      -0.06091451       0.10253842
Ti       5.86958661       2.87496875      12.60663675  F       0.00435696      -0.06100601       0.10257281
Ti       4.40400587       4.99918798      13.77407624  F      -0.00010837       0.05968679      -0.09423951
Ti       1.46798238       5.00173754      13.76183902  F       0.00011479       0.06534130      -0.08132735
Ti       4.40398826       0.93016289      14.23640015  F       0.00005578       0.02002574       0.02418154
Ti       1.46802936       0.93480034      14.24581674  F      -0.00015486       0.01716110       0.04259834
Ti       2.92524250       3.09110270      15.43221958  F       0.00247637      -0.02668772      -0.02728499
Ti       0.01077512       3.09110270      15.43217618  F      -0.00243816      -0.02676544      -0.02724518
Ti       2.92784966       6.03140226      16.02919631  F      -0.00626847       0.01457517      -0.03978927
Ti       0.00817382       6.03140915      16.02919631  F       0.00628201       0.01462903      -0.03969372
Ti       4.40401762       1.29987005      17.21494824  F       0.00005581      -0.00211984       0.00838159
Ti       1.46802936       1.30358414      17.23812084  F      -0.00004457       0.01030868      -0.01095646
Ti       4.40404110       4.12768569      17.63721912  F      -0.00014241       0.01340137       0.03942499
Ti       1.46798826       4.13097256      17.70244090  F       0.00009558       0.00894817       0.01990574
Ti       2.95611747       6.26662347      18.86879553  F       0.00205015       0.01030274      -0.00598256
Ti       5.85200584       6.26666481      18.86883893  F      -0.00210260       0.01009512      -0.00607038
Ti       2.90790835       2.42568081      19.44607121  F      -0.00081744      -0.00257443      -0.00867712
Ti       0.02816798       2.42570837      19.44607121  F       0.00076955      -0.00274986      -0.00892751
Al       1.46802349       4.53556737      20.72746439  F      -0.00003611       0.00397464      -0.00446186
Ti       4.40401174       4.58914262      20.67439304  F       0.00006870       0.00680646      -0.00545697
Ti       4.40401762       0.56019389      21.03135536  F      -0.00021226       0.00456107      -0.01032916
Ti       1.46824662       0.42758221      21.00527532  F      -0.00012410       0.02196161       0.01961231
Ti       0.05718154       2.54634400      22.21797517  F      -0.00186016       0.00951475      -0.00078024
Ti       2.87885957       2.54644047      22.21806196  F       0.00187180       0.00929475      -0.00102340
Ti       5.82492418       5.89849428      22.82363078  F       0.00076984      -0.01581138       0.00031532
Ti       2.98318739       5.89844605      22.82367418  F      -0.00068251      -0.01588283       0.00040481
Ti       4.40404698       3.87297067      24.15596899  F       0.00017941      -0.01424780       0.00179161
Ti       1.46792366       3.89109323      24.15188991  F       0.00003771      -0.01467030       0.00986731
Ti       4.40401762       1.04387335      24.32932961  F       0.00002587      -0.00366308      -0.00870543
Ti       1.46798826       1.02964404      24.27868834  F       0.00002772       0.01163841      -0.00442217
Ti       5.85925189       5.82810570      25.65207764  F      -0.00299321      -0.00466993      -0.00292007
Ti       2.94876573       5.82809881      25.65212104  F       0.00285814      -0.00457164      -0.00298885
Ti       2.92989899       2.76265021      26.25873133  F      -0.00253292       0.00011260      -0.00428489
Ti       0.00614211       2.76265710      26.25877472  F       0.00236040       0.00002024      -0.00427934
Ti       4.40400587       0.64798840      27.42894806  F       0.00005300      -0.02381460       0.01924350
Ti       1.46800000       0.65011074      27.41458451  F       0.00006340      -0.02179931       0.01705146
Ti       1.46798238       4.71997649      27.89279078  F       0.00018575       0.00459534      -0.01267582
Ti       4.40401762       4.71450527      27.90429030  F      -0.00003524      -0.00036075      -0.00785543
Ti       2.93422666       2.56691965      29.08244820  F       0.00074959      -0.03827601      -0.02007102
Ti       0.00180270       2.56692654      29.08244820  F      -0.00084006      -0.03834595      -0.01986630
Ti       2.93685144       6.52583812      29.68476245  F      -0.00302789       0.02518416       0.01512209
Ti       5.87117792       6.52583123      29.68480584  F       0.00297053       0.02521077       0.01492734
Ti       4.40400587       4.37071407      30.87441987  F       0.00007691       0.01719272       0.02628169
Ti       1.46801762       4.37161675      30.86964648  F      -0.00002992       0.01230803       0.02707404
Ti       4.40400000       1.55473666      31.35332044  F       0.00009286       0.00757520      -0.03061575
Ti       1.46800587       1.55668673      31.35227898  F      -0.00000623       0.01131901      -0.03305680
Ti       2.93464944       6.31774563      32.51056225  F       0.00458215      -0.08727330       0.73956712
Ti       0.00137992       6.31775941      32.51056225  F      -0.00472732      -0.08733703       0.73958746
Ti       5.87127187       3.27721383      33.12398546  F       0.00349615       0.27221137       0.23461850
Ti       2.93674574       3.27720694      33.12398546  F      -0.00355523       0.27221955       0.23467989
Ti       1.46798826       1.14929430      34.43744710  F       0.00010672       0.06420644      -0.76027400
Ti       4.40401174       1.14957682      34.43944324  F       0.00001437       0.05967960      -0.76053536
