100
Lattice="4.4265 -2.555641 0.0 3.767997 6.526363 -0.031456 0.0 0.0 61.781652" Properties=species:S:1:pos:R:3:move_mask:L:1:forces:R:3 job_name=BondOrder-VacuumGB-CSL13-V-V-56-d-2.88 top_level=BondOrder-VacuumGB solute=V energy=-760.94021582 stress_kbar_3x3="_JSON [[-36.2582789, -1.43356821, -0.29062144], [-1.43356819, -39.54619658, -0.3590093], [-0.29062149, -0.35900931, -23.73545412]]" pbc="T T T"
Ti       2.45053648      -0.93901996       8.00549106  F       0.10730066      -0.02494645       1.76351945
Ti       5.74226324       1.51159198       7.98988596  F      -0.07501430       0.07855406       1.76335688
Ti       4.95712048      -0.84245976       9.38270757  F       0.40774344       0.00621876      -0.16792509
Ti       4.57330710       3.73011317       9.36704110  F      -0.19797488       0.35434370      -0.16896080
Ti       7.07923672       3.82049000      10.63894362  F      -0.13673707      -0.03201869      -0.97613769
Ti       3.78350800       1.37295436      10.65436060  F       0.04168324      -0.13840396      -0.97689217
Ti       1.63906050      -0.48149577      10.86237612  F       0.31440800      -0.27674226      -0.10192687
Ti       2.11926985       3.59192884      10.84677254  F      -0.39827157       0.13409285      -0.10266977
Ti       4.69681518       3.62517322      12.16031117  F       0.04727112      -0.12072575      -0.34592832
Ti       4.80563927      -0.78907836      12.17567033  F      -0.12768772      -0.01819341      -0.34310174
Ti       3.42700788       5.84351426      13.26250196  F      -0.07549725       0.04512643       0.04333254
Ti       2.93614161       1.77639036      13.27804323  F       0.06951843      -0.04586703       0.04420150
Ti       2.39131887      -0.98420863      13.74010381  F       0.04514544      -0.04007230       0.00997772
Ti       5.73529069       1.43654417      13.72449761  F      -0.05817072       0.01551438       0.00943807
Ti       4.27872564       3.73848399      14.95361371  F       0.00137745       0.01727813      -0.02390214
Ti       5.11304057      -1.09446460      14.96996079  F       0.01510214       0.00906060      -0.03004277
Ti       6.91942993       3.58233780      15.85753676  F       0.00258965       0.00183829      -0.00924884
Ti       3.65791462       1.11450952      15.87307926  F      -0.00065574       0.00148484      -0.00910014
Ti       6.36422769       0.87908083      16.60039467  F      -0.00328815       0.00208806       0.00221698
Ti       1.59461601      -0.71768211      16.61605941  F       0.00331539      -0.00340270       0.00196990
Ti       4.78402071       3.17842251      17.68539449  F      -0.00386164       0.00679683       0.01330234
Ti       4.37595482      -0.93677597      17.70167812  F       0.00834991      -0.00162118       0.01151301
Ti       3.17302604       5.40886936      18.47885109  F      -0.00299750       0.00164785       0.00091728
Ti       2.68668284       1.33855975      18.49464156  F       0.00381572      -0.00156022       0.00123463
Ti       5.89269010       5.20444687      19.43820200  F       0.00260837      -0.00845859      -0.00297142
Ti       5.57656210       1.03570682      19.45442551  F      -0.00848887       0.00265500      -0.00263679
Ti       0.59231709       0.92199060      20.37139044  F      -0.00099369       0.00168546      -0.00249254
Ti       3.85948274       3.38606065      20.35504657  F       0.00525234       0.00157490      -0.00310307
Ti       3.30319435       0.66882913      21.18179497  F       0.00629773       0.00778613      -0.00153541
Ti       6.71278820       3.05176465      21.16563248  F      -0.00211959       0.00510372       0.00390206
Ti       5.10715058       5.38381018      22.29362897  F      -0.00149987      -0.00036625      -0.00203376
Ti       6.12553639       0.44418793      22.31022462  F       0.00327398       0.00529193      -0.00229362
Ti       4.55135865       2.66563938      22.96265116  F       0.00113630       0.00066148      -0.00657505
Ti       4.04977307      -1.39438203      22.97967189  F      -0.00126493      -0.00671082      -0.00224082
Ti       7.16694414       2.55924660      23.91574854  F      -0.00057769      -0.00042552       0.00134638
Ti       2.64951346       0.81684338      23.93042493  F       0.00602938       0.00344113      -0.00047746
Ti       5.77497967       4.85032537      25.17343577  F       0.00187231       0.01002874      -0.00531888
Ti       5.33125460       0.75716794      25.19064087  F       0.01047863       0.00458391      -0.00490461
Ti       3.64786025       2.99905413      25.56087933  F      -0.00519003       0.00694071      -0.00542502
Ti       0.36583118       0.54478373      25.57709523  F      -0.00406883      -0.01200970       0.01237154
Ti       2.91076621       0.58937212      26.73052287  F      -0.00802959      -0.00722694      -0.00024089
Ti       6.83733485       2.66518250      26.71766608  F       0.01182698       0.01731584      -0.00116408
Ti       4.97180389       5.28205126      28.03070568  F      -0.00160761       0.00794705      -0.00674051
Ti       1.68276478       2.82900001      28.05428382  F      -0.00096612       0.00174105      -0.00996894
Ti       4.43616847       2.50085017      28.20868774  F       0.00733518       0.00840851      -0.02056555
Ti       3.96655203      -1.57857713      28.22052224  F      -0.00204347      -0.01974967      -0.00520083
Ti       6.93644922       2.59344416      29.50425640  F       0.02120384       0.02812288      -0.00629760
Ti       2.81557655       0.64611377      29.51266778  F      -0.02642108      -0.01935632       0.02421658
Ti       3.64490813       2.96507238      30.90141433  F      -0.02228539      -0.00468593       0.01805610
Ti       0.32907898       0.52293733      30.89041120  F       0.00901318      -0.01040901      -0.00664035
Ti       5.77438538       4.81506066      30.86983280  F      -0.00187319       0.03220284      -0.01162179
Ti       5.30975729       0.74211648      30.92889642  F       0.02270996      -0.00508606       0.01523856
Ti       2.78559129       0.66600151      32.26515463  F       0.00210248       0.01716754       0.02184150
Ti       6.95836179       2.59884920      32.27843443  F       0.00466224      -0.01885835       0.00765889
Ti       4.10153802      -1.48389339      33.58359592  F       0.00633468       0.00709781       0.00027856
Ti       4.44872193       2.46353764      33.58478865  F      -0.02953430      -0.02348145      -0.00040750
V        1.73174452       2.88178768      33.68334956  F       0.00836119      -0.00698495      -0.00118296
Ti       5.04191602       5.24846384      33.68821198  F       0.00576458       0.02123891       0.00460305
Ti       2.86998076       0.63912079      35.02850718  F      -0.00107164       0.01693187      -0.01362805
Ti       6.88696829       2.64776936      34.98314554  F       0.01061779      -0.01294570      -0.00567652
Ti       0.36781170       0.56280168      36.22762674  F       0.00674043      -0.00055890       0.00243637
Ti       3.64975472       3.01966269      36.22493183  F      -0.00931531      -0.01675364      -0.01914818
Ti       5.33702705       0.79372435      36.44810217  F       0.00096112      -0.00955946      -0.01097753
Ti       5.79615810       4.85614557      36.52636690  F       0.00559729       0.01914129       0.00744597
Ti       7.12759265       2.58845775      37.79942148  F       0.01159316       0.03339562       0.00920024
Ti       2.69884273       0.81497326      37.82341595  F      -0.01444753      -0.01736081      -0.01431285
Ti       4.54095023       2.64885863      38.81819137  F       0.00180557       0.00398140       0.01324171
Ti       4.06091204      -1.39323383      38.81001897  F      -0.00821908      -0.01380630       0.00821337
Ti       6.14260348       0.45061534      39.39680835  F      -0.00338528      -0.00746189       0.00424914
Ti       5.11331621       5.38440992      39.39384848  F       0.00144674       0.00384648       0.00570973
Ti       3.28681816       0.68545423      40.58126956  F      -0.00385981      -0.01240929       0.00166122
Ti       6.72381671       3.04028067      40.56280379  F       0.00902856       0.01935582       0.00138398
Ti       3.86002236       3.39388530      41.39871278  F       0.00419411       0.00401663       0.00313467
Ti       0.58968564       0.91768836      41.40707548  F      -0.00975504      -0.00320422      -0.00514514
Ti       5.89293050       5.21563784      42.26728462  F       0.00422679      -0.01074092      -0.00396345
Ti       5.58115998       1.03915221      42.27154140  F      -0.01079599      -0.00658725       0.00453874
Ti       3.17071674       5.42007050      43.25078660  F       0.00123663      -0.00250917       0.00614851
Ti       2.68864127       1.35068192      43.26440248  F      -0.00029552      -0.00574202       0.01267345
Ti       4.79344737       3.19125384      44.04947457  F       0.00203925       0.00541967       0.00960727
Ti       4.37956334      -0.91769653      44.06352362  F       0.00427180      -0.00073859       0.00121927
Ti       6.36518110       0.90237336      45.15103085  F      -0.00420955       0.00501684      -0.00780513
Ti       1.60421753      -0.70211494      45.16960920  F       0.00444165      -0.00561271      -0.00928663
Ti       6.93159412       3.60409171      45.85742910  F      -0.00962689      -0.01024941      -0.01541056
Ti       3.66051579       1.13753816      45.87409902  F      -0.00417212      -0.00693401      -0.01341488
Ti       4.29996585       3.74854111      46.77812692  F       0.02097406       0.00210155      -0.01238799
Ti       5.10551522      -1.06665974      46.79280177  F      -0.00728525       0.02076051      -0.00871676
Ti       5.73599248       1.44733823      48.03977832  F       0.04334878      -0.02162803       0.00201212
Ti       2.39416319      -0.97342460      48.05605968  F      -0.04206236       0.02413934       0.00091967
Ti       3.42966771       5.85877312      48.44486793  F      -0.02333460      -0.06777384       0.02536433
Ti       2.94109922       1.78996581      48.46146078  F      -0.04198767      -0.05024190       0.02426121
Ti       4.68170763       3.64144004      49.57858855  F       0.01412119       0.01896700       0.40379262
Ti       4.82243691      -0.79110148      49.59370012  F       0.00723696       0.02401356       0.40934951
Ti       2.11887069       3.59515272      50.91506678  F       0.17033196      -0.03024174       0.44023499
Ti       1.63754060      -0.47860813      50.93067392  F      -0.11503179       0.13490368       0.44159764
Ti       7.07928789       3.82405431      51.07045002  F       0.49701306      -0.13913677       0.16221360
Ti       3.78233995       1.37660475      51.08630171  F      -0.36818820       0.35698982       0.16206075
Ti       4.58222287       3.72553996      52.37114641  F       0.14451364      -0.19543413       0.18203024
Ti       4.94738404      -0.83493273      52.38680806  F      -0.24365535       0.02443748       0.17967702
Ti       3.45712229       5.92578961      53.74666975  F       0.04560325      -0.08491544      -1.39573642
Ti       2.98975451       1.84506405      53.76295252  F      -0.09740796      -0.00254922      -1.39538496
