52
Lattice="5.088765 0.0 0.0 0.0 5.495746 0.0 0.0 0.0 48.722931" Properties=species:S:1:pos:R:3:move_mask:L:1:forces:R:3 job_name=BondOrder-VacuumGB-C1-V-V-29-d-2.59 top_level=BondOrder-VacuumGB solute=V energy=-395.32210465 stress_kbar_3x3="_JSON [[-36.26680155, -0.52143798, -0.61953722], [-0.52143799, -24.80666339, 4.67923569], [-0.6195372, 4.67923565, -29.39133895]]" pbc="T T T"
Ti       2.59667974       0.79515201      40.68145485  F       0.10530248      -0.02314157      -1.66729482
Ti       0.01518996       1.60211987       9.36420628  F       0.01996293       0.56374982       0.08427160
Ti       0.78553230       4.35149321       9.37599723  F       0.05854868      -0.62298280       0.36454108
Ti       2.53228142       2.35037668      10.59489879  F      -0.21743397       0.36917979      -0.46263856
Ti       3.32662746       5.09763416      10.58851609  F       0.22465916      -0.33912835      -0.61152078
Ti       0.77672365       0.36600569      11.85063489  F      -0.01765955      -0.02144080      -0.36812098
Ti       5.08431233       3.11452169      11.83631035  F       0.03906685      -0.06239360      -0.20652918
Ti       3.33874381       1.13844928      13.09448260  F      -0.07315811       0.00713935       0.06265073
Ti       2.53345692       3.88399208      13.09872149  F       0.04402459      -0.05931842       0.03149707
Ti       5.05904152       4.64115750      14.36483558  F      -0.01314776      -0.02631382       0.02286665
Ti       0.78732354       1.89806030      14.34875701  F       0.04622449       0.01447321       0.06326018
Ti       3.33399090       2.65145014      15.62417718  F       0.00330160       0.00032485      -0.04410935
Ti       2.51185003       5.40343945      15.60839095  F       0.00076158      -0.00520575       0.00243226
Ti       0.80877778       3.40740099      16.87596672  F      -0.00839562      -0.03263222      -0.00930617
Ti       5.06201845       0.66555133      16.86782999  F       0.00148849      -0.02489895      -0.01054158
Ti       2.52573727       1.40324531      18.13832914  F       0.05163265      -0.00796612      -0.01765479
Ti       3.34289624       4.15182177      18.11333427  F       0.00759065      -0.03167598      -0.00953374
Ti       0.78517100       4.90165586      19.39084953  F       0.01318917       0.04564285      -0.05193474
Ti       5.07266924       2.15965781      19.40980275  F       0.02237910       0.03081091      -0.06347274
Ti       3.39492377       0.16339952      20.65131175  F       0.02780622       0.05991548      -0.01433053
Ti       2.50273096       2.93556921      20.62110353  F       0.07688894      -0.04391341       0.01723861
Ti       0.05148304       3.57228986      21.88093236  F      -0.05988691      -0.04607061       0.06808830
Ti       0.84850576       0.82444983      21.86709505  F       0.00432031       0.00368248       0.02884860
Ti       2.77927989       4.49024431      23.16039653  F       0.03230541       0.05161089      -0.04264481
Ti       3.23757916       1.75218122      23.11488931  F      -0.02941549      -0.16615889       0.03631641
Ti       0.99005994       2.90473258      24.53735528  F       0.02786427       0.05713046      -0.04333045
Ti       5.07047598       0.11558103      24.52268968  F      -0.03811960       0.07524315      -0.04245541
Ti       3.56613527       3.02223713      25.53179030  F      -0.04876516       0.05749770       0.05586260
Ti       2.52061288       0.22821085      25.56404488  F       0.04322515      -0.06239116      -0.03115697
V        0.46204460       4.25375137      26.83561594  F      -0.01860644       0.04001930      -0.00962668
Ti       0.53869157       1.51102788      26.88492354  F      -0.03407320       0.01013740       0.08543191
Ti       3.49082664       0.22847465      28.14533704  F       0.00709285       0.00861033      -0.03980480
Ti       2.64790325       3.01631821      28.09554221  F      -0.06933651       0.05869937       0.01767201
Ti       0.97122133       5.19596954      29.24374680  F      -0.06382644       0.00036068       0.00201292
Ti       5.07369208       2.48875407      29.38460479  F       0.00807798       0.04299614      -0.07497673
Ti       2.59743796       1.59289801      30.57670875  F       0.02566709       0.03714142       0.00442193
Ti       3.32799633       4.32737238      30.60857354  F      -0.00065648       0.01568703       0.02005408
Ti       0.07609230       0.74730605      31.82187197  F      -0.02741679       0.00731792      -0.05843753
Ti       0.85062269       3.49056811      31.89076620  F      -0.03178418       0.00058158      -0.00056630
Ti       3.40655160       2.71093060      33.08930158  F      -0.00109845       0.02241244      -0.00338428
Ti       2.56747023       5.48191321      33.11424772  F      -0.00339155       0.01366440       0.04646843
Ti       0.81098630       1.94421358      34.34440428  F       0.03463904       0.02553969      -0.01045644
Ti       0.00487504       4.70604027      34.33787541  F      -0.01992476       0.03386193      -0.01256185
Ti       2.56046300       3.91172911      35.58055376  F       0.07226405       0.02491487      -0.02992699
Ti       3.34742524       1.16283940      35.62450184  F      -0.02901072      -0.03686720      -0.03777346
Ti       0.80601458       0.37521656      36.85733817  F      -0.03775727      -0.05318818       0.21124595
Ti       0.01954595       3.12728831      36.84554722  F       0.03239737      -0.00137681       0.37399951
Ti       2.54169563       2.36396766      38.10108843  F      -0.21686989      -0.33668263       0.62912452
Ti       3.34748121       5.11030185      38.09412105  F       0.21973937       0.36061126       0.47656966
Ti       0.77423015       4.35741763      39.32710354  F      -0.04161184       0.57682672      -0.04206592
Ti       5.08398156       1.60930281      39.30776054  F      -0.04379245      -0.58987540      -0.35484087
Ti       3.28145449       3.54322286       8.00571352  F      -0.10528129      -0.02216074       1.66612242
