64
Lattice="5.871999 0.0 0.0 0.0 6.890708 0.0 0.0 0.0 43.401158" Properties=species:S:1:pos:R:3:move_mask:L:1:forces:R:3 job_name=BondOrder-VacuumGB-T1m-Al-Al-33-d-0.00 top_level=BondOrder-VacuumGB solute=Al energy=-482.09104124 stress_kbar_3x3="_JSON [[-16.94531442, 2.387e-05, -6.274e-05], [2.388e-05, -26.48260953, -0.48832326], [-6.274e-05, -0.48832327, -17.92057549]]" pbc="T T T"
Ti       2.93604648       0.10447002       8.85622330  F      -0.00000216      -0.30027327       0.18404797
Ti       2.93599950       2.94565364       8.85626670  F       0.00024402       0.13390111       0.97965488
Ti       0.00004110       0.10482834       8.85622330  F      -0.00009307      -0.30488233       0.17632574
Ti       0.00000000       2.94400676       8.85626670  F      -0.00015611       0.13819340       0.97861595
Ti       4.40439855       5.03302825      10.26979901  F      -0.00203728       0.21671006      -0.29562718
Ti       1.46767679       5.03303514      10.26984241  F       0.00192341       0.21692895      -0.29545912
Ti       4.40591352       1.32007360      10.88340458  F      -0.00255044      -0.06346745      -0.69539912
Ti       1.46616181       1.32007360      10.88340458  F       0.00255208      -0.06352958      -0.69525180
Ti       2.93604060       3.40985307      12.05775312  F       0.00005381       0.01704678       0.04946595
Ti       0.00003523       3.41227171      12.05753611  F      -0.00009576       0.01392342       0.05003753
Ti       2.93604060       6.23243866      12.47692150  F      -0.00001394       0.01171394      -0.04986755
Ti       0.00003523       6.23230774      12.47722531  F       0.00002110       0.00964325      -0.05302996
Ti       1.46873962       1.49454633      13.69649404  F       0.00257810       0.01709390       0.01222402
Ti       4.40332397       1.49454633      13.69649404  F      -0.00270712       0.01713255       0.01221850
Ti       1.46787057       4.43756772      14.29417139  F       0.00343457      -0.02862251       0.03967042
Ti       4.40418128       4.43756083      14.29417139  F      -0.00340339      -0.02855796       0.03962655
Ti       2.93601712       6.58843331      15.45311251  F       0.00000352       0.01182861       0.03612041
Ti       0.00000587       6.58981145      15.45081225  F       0.00001160       0.02023928       0.02779814
Ti       2.93602299       2.51983545      15.96394414  F      -0.00002772      -0.01558289      -0.00157343
Ti       0.00001762       2.52518264      15.96385734  F       0.00004955      -0.01904170      -0.01662703
Ti       4.41212022       4.67949358      17.12284186  F      -0.00052563       0.02268927       0.02222396
Ti       1.45988465       4.67949358      17.12284186  F       0.00050813       0.02261632       0.02230785
Ti       4.40060523       0.73689231      17.73197711  F       0.00529897      -0.00321157       0.01206291
Ti       1.47139377       0.73689920      17.73197711  F      -0.00526765      -0.00333045       0.01196027
Ti       5.87198726       2.90301394      18.90962413  F      -0.00002227       0.00392592       0.01524511
Ti       2.93598188       2.87122710      18.95068163  F       0.00004158       0.00384070       0.00724920
Ti       5.87198726       5.74513469      19.39046556  F       0.00001746      -0.01873414      -0.00078407
Ti       2.93599363       5.69833989      19.35235935  F      -0.00001338      -0.00472110      -0.00318938
Ti       1.46473492       0.90340627      20.56602933  F      -0.00205484       0.01100695       0.00272942
Ti       4.40720536       0.90342005      20.56607273  F       0.00207030       0.01093894       0.00239178
Ti       1.44613243       4.07258759      21.14899368  F       0.00845825      -0.01415676      -0.00288189
Ti       4.42584309       4.07259448      21.14899368  F      -0.00835511      -0.01425906      -0.00276807
Ti       2.93597601       2.05615281      22.55684045  F       0.00002765       0.01424030       0.00214750
Al       5.87198138       2.14921872      22.55666684  F       0.00000834      -0.01760758       0.00564085
Ti       2.93597601       6.10633871      22.55688385  F      -0.00001237       0.00535215       0.00036163
Ti       5.87196377       6.22821466      22.55688385  F       0.00000456      -0.03358927      -0.00389391
Ti       4.42586657       4.07253246      23.96468721  F      -0.00254870      -0.01349817       0.00911468
Ti       1.44609719       4.07253246      23.96468721  F       0.00256029      -0.01348819       0.00909832
Ti       4.40726408       0.90348207      24.54760816  F       0.00726735       0.00744500      -0.00234078
Ti       1.46469381       0.90349585      24.54760816  F      -0.00716349       0.00736250      -0.00224857
Ti       2.93599950       5.69834678      25.76132155  F       0.00001320       0.01858384      -0.03562851
Ti       0.00000000       5.74514158      25.72321533  F      -0.00000625      -0.00088044      -0.03250616
Ti       2.93598776       2.87122710      26.16299926  F       0.00001671      -0.00465960       0.00394033
Ti       0.00000000       2.90302083      26.20414356  F       0.00000471      -0.00338253      -0.00740306
Ti       4.40062285       0.73689231      27.38170378  F       0.00286457      -0.00697209       0.02130675
Ti       1.47141138       0.73688542      27.38170378  F      -0.00284361      -0.00694452       0.02137607
Ti       4.41212610       4.67951426      27.99092583  F       0.00164654      -0.02512372      -0.00062965
Ti       1.45990226       4.67952804      27.99092583  F      -0.00171699      -0.02513458      -0.00058440
Ti       0.00004110       2.52520331      29.14991036  F      -0.00001160       0.01677063      -0.04768522
Ti       2.93603473       2.51985612      29.14982356  F      -0.00000754       0.01588939      -0.05962930
Ti       0.00004110       6.58985969      29.66295545  F       0.00003028       0.05008891       0.09936708
Ti       2.93603473       6.58847466      29.66065519  F      -0.00006503       0.04623594       0.09271822
Ti       1.46788818       4.43760906      30.81963971  F       0.00383607       0.00754278      -0.06612014
Ti       4.40421064       4.43761595      30.81963971  F      -0.00384213       0.00749473      -0.06609800
Ti       1.46874549       1.49459457      31.41727365  F       0.00596222      -0.02708957       0.01101944
Ti       4.40332397       1.49458767      31.41727365  F      -0.00594740      -0.02718606       0.01073598
Ti       2.93602886       6.23245934      32.63684619  F      -0.00011573       0.13727736       0.56230395
Ti       0.00004110       6.23234219      32.63658579  F      -0.00002206       0.13653775       0.56092978
Ti       2.93604060       3.40989442      33.05605798  F      -0.00017782       0.14326940       0.25146976
Ti       0.00005872       3.41230616      33.05627498  F       0.00017579       0.13819149       0.23514784
Ti       4.40591939       1.32012873      34.23027631  F      -0.00780181      -0.26582187      -0.15327464
Ti       1.46617356       1.32011495      34.23031971  F       0.00783579      -0.26572190      -0.15342901
Ti       4.40439267       5.03300069      34.84392528  F      -0.00334607      -0.01606517      -0.91728688
Ti       1.46766505       5.03300069      34.84396868  F       0.00343397      -0.01611951      -0.91743792
