100
Lattice="4.4265 -2.555641 0.0 3.767997 6.526363 -0.031456 0.0 0.0 61.781652" Properties=species:S:1:pos:R:3:move_mask:L:1:forces:R:3 job_name=BondOrder-VacuumGB-CSL13-V-V-51-d-0.00 top_level=BondOrder-VacuumGB solute=V energy=-761.04385846 stress_kbar_3x3="_JSON [[-37.39527558, -2.17982595, -0.05811131], [-2.17982594, -38.43155485, -0.09660409], [-0.0581113, -0.09660411, -23.6212925]]" pbc="T T T"
Ti       2.46284120      -0.92370821       8.01968159  F       0.11542081      -0.02566464       1.76626566
Ti       5.75467398       1.52649444       8.00389240  F      -0.07931189       0.08629365       1.76483423
Ti       4.97463127      -0.82969255       9.38732028  F       0.41658177       0.00058462      -0.12955307
Ti       4.58010046       3.74872873       9.37177860  F      -0.20779384       0.36143033      -0.13064590
Ti       7.08960391       3.83754692      10.63249681  F      -0.14255364      -0.04453562      -0.98482481
Ti       3.79636599       1.38753769      10.64896783  F       0.03372526      -0.14730552      -0.98649985
Ti       1.65059310      -0.46700000      10.87762150  F       0.30712499      -0.26185948      -0.11872078
Ti       2.12988734       3.60740544      10.86133668  F      -0.38108344       0.13493130      -0.11769731
Ti       4.71583209       3.63144081      12.16920716  F       0.04768700      -0.12697950      -0.34215795
Ti       4.80591785      -0.77104370      12.18481002  F      -0.13464789      -0.02488494      -0.33899255
Ti       3.43320197       5.84851809      13.25555140  F      -0.08178375       0.03704102       0.03804490
Ti       2.94104846       1.78247675      13.27220352  F       0.07438607      -0.05509033       0.03585590
Ti       2.39428651      -0.97623688      13.75780013  F       0.04771626      -0.04156827       0.00991289
Ti       5.74444025       1.44073795      13.74256538  F      -0.05813882       0.01945731       0.01066336
Ti       4.26882173       3.74270530      14.95924125  F      -0.00071525       0.02152088      -0.02928608
Ti       5.12742893      -1.10414661      14.97509364  F       0.01795114       0.01092672      -0.02904927
Ti       6.91807855       3.57260622      15.85195263  F      -0.00257483      -0.00000262      -0.01231961
Ti       3.65647043       1.10436163      15.86718792  F      -0.00111874      -0.00143844      -0.01082647
Ti       6.36309961       0.87130007      16.61525275  F      -0.00490448       0.00104431      -0.00116066
Ti       1.59477670      -0.72621565      16.63110286  F       0.00185198      -0.00053811      -0.00307709
Ti       4.78609003       3.16304382      17.68587824  F      -0.00274353      -0.00101090       0.00784366
Ti       4.36741917      -0.94738935      17.70309349  F       0.00531250      -0.00220666       0.00712816
Ti       3.16512484       5.39424361      18.47966183  F      -0.00137578      -0.00229378      -0.00062736
Ti       2.68584575       1.32068221      18.49483150  F      -0.00817307      -0.00157102       0.00149082
Ti       5.88889600       5.18494376      19.45038962  F       0.00022293      -0.00665958      -0.00524140
Ti       5.56763261       1.02023026      19.46716533  F      -0.00878653      -0.00361294      -0.00673280
Ti       0.58515265       0.89913396      20.36981991  F       0.00285170      -0.00022081      -0.00677775
Ti       3.84822214       3.36401130      20.35076328  F       0.00124766       0.00292658      -0.00458939
Ti       3.28907486       0.64906560      21.18486140  F       0.00334902       0.00545808       0.00149345
Ti       6.70812111       3.02593464      21.17061635  F       0.00212317       0.00455111      -0.00177366
Ti       5.08926362       5.36049599      22.30301783  F       0.00532811       0.00085607       0.00091756
Ti       6.11811489       0.41674591      22.32263385  F       0.00123417       0.00526919      -0.00272915
Ti       4.53656510       2.63446535      22.95241541  F       0.00271506       0.00298379       0.00559154
Ti       4.03366376      -1.42443093      22.97443913  F      -0.00025060       0.00133697       0.00347961
Ti       7.14303357       2.53723470      23.92360072  F      -0.00078345      -0.00030252       0.00216265
Ti       2.64366227       0.78780729      23.93659671  F       0.00728756       0.00216082      -0.00051029
Ti       5.76412829       4.82380197      25.18201838  F       0.00290966      -0.00154567       0.00611337
Ti       5.31149091       0.73721716      25.21070971  F      -0.00644139       0.00012937      -0.00242068
Ti       3.63021574       2.96941297      25.54922301  F      -0.00051972      -0.00317975       0.00268395
Ti       0.34979305       0.51562483      25.57222980  F      -0.00603883       0.00631961       0.00238721
Ti       2.88412368       0.57046904      26.73793704  F       0.01084161       0.00942765      -0.00756492
Ti       6.83038337       2.62856715      26.72856296  F       0.00243607       0.00348256       0.00122772
Ti       4.94861040       5.24342256      28.04158195  F       0.00063019      -0.00276755       0.00071507
Ti       1.67077558       2.79857378      28.12571485  F      -0.00125249       0.00756401      -0.01451034
Ti       4.42567307       2.45877124      28.19996519  F       0.01149942       0.01316595      -0.00457414
Ti       3.95432659      -1.61779504      28.20172255  F       0.00229689       0.00117981       0.00288530
Ti       6.88860524       2.57260647      29.52173044  F       0.00543215      -0.00296495      -0.00181932
Ti       2.82442325       0.58417456      29.50780712  F      -0.01215196       0.00445198       0.01048989
Ti       3.57879868       2.89958465      30.87077465  F      -0.00006793      -0.00860581      -0.00192962
Ti       4.75173082      -1.92979320      30.88337480  F       0.00344620      -0.00775802      -0.00246235
Ti       5.69090244       4.81499057      30.86840096  F      -0.00596544       0.00594151      -0.00122254
V        5.29701372       0.75210193      30.88224177  F       0.01042260       0.00657433       0.00052924
Ti       2.82169652       0.59101344      32.25935752  F      -0.01046844       0.00619502      -0.01040986
Ti       6.89435914       2.57262596      32.21527483  F       0.00607237      -0.00413187      -0.00164232
Ti       3.96007377      -1.60627658      33.56085654  F       0.00145050       0.00044541       0.00076886
Ti       4.43322242       2.46736962      33.53593786  F       0.01165428       0.01242396       0.00802342
Ti       1.67849570       2.80937956      33.63923965  F       0.00047734       0.00758459       0.01185733
Ti       4.95429635       5.25367981      33.69541910  F       0.00229228      -0.00017428      -0.00046709
Ti       2.90746347       0.57947059      35.03537878  F       0.01082455       0.00875442       0.00753941
Ti       6.82831539       2.65381293      35.01271595  F       0.00127892      -0.00222807       0.00115959
Ti       0.36805266       0.54391885      36.17771314  F      -0.00637104       0.00843232       0.00433160
Ti       3.64471499       2.99768518      36.17293987  F      -0.00069212      -0.00163595       0.00160009
Ti       5.33550893       0.76002851      36.55832205  F      -0.00820085      -0.00223921       0.00173033
Ti       5.77070725       4.85602043      36.55687882  F      -0.00111896      -0.00328670      -0.00763044
Ti       7.18818155       2.55992478      37.81589387  F      -0.00089071       0.00168316       0.00017462
Ti       2.64011004       0.83919748      37.83457166  F       0.00792963       0.00266168       0.00336407
Ti       4.56822311       2.69100581      38.75941309  F       0.00158565       0.00258932      -0.00296780
Ti       4.06752170      -1.36851666      38.76815143  F      -0.00186560      -0.00006591      -0.00250512
Ti       6.13467624       0.47413599      39.44665944  F       0.00202690       0.00105684       0.00220572
Ti       5.12979331       5.40359545      39.43544736  F       0.00498291      -0.00011821      -0.00264250
Ti       3.34488746       0.69740360      40.57004625  F       0.00200880       0.00528547      -0.00247006
Ti       6.72254407       3.09942202      40.55320184  F      -0.00086128       0.00326439      -0.00004211
Ti       3.89617710       3.43350639      41.36173401  F       0.00170666       0.00228061       0.00550737
Ti       0.62120288       0.97570238      41.37399394  F       0.00323037      -0.00188258       0.00570383
Ti       5.92396005       5.25756532      42.29672349  F      -0.00135480      -0.00872178       0.00280842
Ti       5.61239351       1.08715762      42.31152253  F      -0.00948054      -0.00404552       0.00350086
Ti       3.21687272       5.46553429      43.22031470  F       0.00054111      -0.00148679       0.01305044
Ti       2.72137873       1.40175224      43.23653315  F      -0.00832300      -0.00055301       0.01149423
Ti       4.79981794       3.24980248      44.03720221  F       0.00537205       0.00258807       0.01062677
Ti       4.43517968      -0.89168720      44.05145144  F       0.00386208       0.00553880       0.01211055
Ti       6.40229767       0.92691580      45.17545376  F      -0.00306648       0.00338959      -0.00676385
Ti       1.62230284      -0.66369580      45.19124150  F       0.00569756       0.00071410      -0.00686142
Ti       6.96502251       3.64621795      45.82143547  F      -0.01242926      -0.00675076      -0.01106552
Ti       3.69617585       1.18234397      45.83759679  F      -0.00224731      -0.01386084      -0.01199267
Ti       4.35354889       3.75708507      46.78416237  F       0.02048636       0.00737969      -0.01654381
Ti       5.09689698      -1.02343080      46.80038619  F      -0.00443313       0.02355159      -0.02000801
Ti       5.74406142       1.47170018      48.06345935  F       0.04558169      -0.02601986      -0.00660461
Ti       2.42158980      -0.96106548      48.07937301  F      -0.04477283       0.02611263      -0.00651261
Ti       3.44870690       5.88286656      48.41601263  F      -0.01655798      -0.07358024       0.01970404
Ti       2.96310307       1.81271309      48.43087427  F      -0.05340965      -0.05155026       0.02286369
Ti       4.67804596       3.66702291      49.58888303  F       0.01546212       0.02572321       0.39152192
Ti       4.85584337      -0.78628468      49.60510438  F       0.01390875       0.02661348       0.38796342
Ti       2.13206045       3.60919643      50.93173131  F       0.16697902      -0.02299538       0.47475071
Ti       1.65121109      -0.46446780      50.94696641  F      -0.10291478       0.13341334       0.47601665
Ti       7.09393795       3.83971753      51.05714155  F       0.48764681      -0.14267401       0.16268283
Ti       3.79620798       1.39223218      51.07219184  F      -0.36389575       0.35240228       0.16439589
Ti       4.60140114       3.73630895      52.37619533  F       0.14911963      -0.21794894       0.16086869
Ti       4.95324166      -0.81750858      52.39223142  F      -0.26380258       0.02028516       0.16046383
Ti       3.46971150       5.94179858      53.74065456  F       0.04886371      -0.08618060      -1.39662787
Ti       3.00243898       1.86046110      53.75625975  F      -0.09873967      -0.00068046      -1.39745053
