64
Lattice="5.872 0.0 0.0 0.0 6.890708 0.0 0.0 0.0 43.394398" Properties=species:S:1:pos:R:3:move_mask:L:1:forces:R:3 job_name=BondOrder-VacuumGB-T1g-V-V-45-d-5.32 top_level=BondOrder-VacuumGB solute=V energy=-484.84828844 stress_kbar_3x3="_JSON [[-18.51736689, -0.00675687, 0.0122696], [-0.00675686, -21.2028616, -1.26403391], [0.01226956, -1.26403392, -23.10664066]]" pbc="T T T"
Ti       4.40218555       5.08853290       8.20423167  F       0.00185221      -0.10058538       1.14932178
Ti       1.47000822       5.08862248       8.20414489  F      -0.00189900      -0.10065212       1.14970620
Ti       0.00006459       2.98506160       9.38143490  F      -0.00009761       0.35856592      -0.19057506
Ti       2.93621726       2.98608831       9.36420733  F      -0.00021536       0.35535719      -0.14880058
Ti       5.87191192       6.74807724       9.99277518  F       0.00078329      -0.45270776      -0.28938119
Ti       2.93618790       6.75182578       9.98904326  F      -0.00052450      -0.47277013      -0.28824989
Ti       4.40012448       1.82085581      11.44796293  F      -0.00450250       0.07959780      -0.10364614
Ti       1.47212214       1.82077312      11.44778935  F       0.00443088       0.08010530      -0.10329731
Ti       1.46937405       4.65237865      11.38022427  F      -0.00126299       0.33873626      -0.20650499
Ti       4.40274926       4.65240621      11.38035445  F       0.00123436       0.33814085      -0.20672542
Ti       5.87197651       6.73235264      12.82625579  F       0.00010351      -0.12020551      -0.03010612
Ti       2.93612331       6.73233197      12.82256727  F      -0.00026255      -0.11625536      -0.03041642
Ti       2.93605872       3.10504949      13.44718624  F      -0.00041090      -0.06584633      -0.05981097
Ti       0.00016442       3.10533890      13.44866164  F       0.00023155      -0.06809729      -0.09303882
Ti       4.40309571       5.18349375      14.65945214  F       0.00419610      -0.04097745       0.02112027
Ti       1.46898062       5.18356266      14.65945214  F      -0.00434100      -0.04129877       0.02104694
Ti       4.40326600       1.11035491      15.01702198  F       0.00347227       0.01069837       0.06863580
Ti       1.46878685       1.11030667      15.01719556  F      -0.00324137       0.01094899       0.06765400
Ti       2.93597064       3.26334973      16.26812587  F      -0.00014162       0.03101714      -0.02257484
Ti       0.00005285       3.26268822      16.26725798  F       0.00002422       0.02315621       0.00400621
Ti       2.93607634       6.23471260      16.88033403  F      -0.00034480      -0.01848578      -0.02954229
Ti       5.87190605       6.23357563      16.87881523  F       0.00037686      -0.01042086      -0.03484751
Ti       4.40132824       1.49868076      18.03766263  F       0.00329996       0.00788206       0.02273887
Ti       1.47061891       1.49859118      18.03761923  F      -0.00371673       0.00793260       0.02275571
Ti       4.40113446       4.30974508      18.54680910  F       0.00453071       0.00307606      -0.00251282
Ti       1.47083618       4.30969685      18.54654873  F      -0.00472117       0.00336362      -0.00279449
Ti       2.93580622       6.48420446      19.71663528  F       0.00010676       0.00350215      -0.02019122
Ti       0.00003523       6.47949811      19.71494290  F      -0.00012583      -0.00544160      -0.00228022
Ti       2.93592366       2.50544076      20.33726196  F       0.00012348      -0.00076587      -0.04387147
Ti       5.87178861       2.50492395      20.31174606  F      -0.00014354       0.01436148      -0.00555818
Ti       1.47201058       4.67519378      21.50348641  F      -0.01463394      -0.00511764      -0.00887065
Ti       4.39970170       4.67498017      21.50413732  F       0.01480348      -0.00515914      -0.00870132
Ti       4.39592013       0.60849086      21.99423365  F       0.01308226       0.01597968      -0.00065178
Ti       1.47580976       0.60865624      21.99419026  F      -0.01254484       0.01631684       0.00026064
Ti       5.87118966       2.74010382      23.14314374  F      -0.00113844      -0.00152478      -0.01483132
Ti       2.93670464       2.74841401      23.17338963  F      -0.00008854       0.00663526       0.00084863
Ti       0.00158544       5.77767261      23.74094496  F      -0.00025333       0.00828999      -0.02367235
Ti       2.93412096       5.79099924      23.75873667  F       0.00027344      -0.00400827       0.01011111
Ti       4.43984269       3.85241568      25.32236701  F      -0.02327176      -0.01912724      -0.00962119
Ti       1.43036635       3.84849487      25.32536122  F       0.02345621      -0.01975633      -0.01245849
Ti       4.41868000       1.02759061      25.09341817  F       0.00269035       0.00954491      -0.00686888
Ti       1.45366058       1.02769397      25.09545770  F      -0.00271247       0.01029920      -0.00814654
Ti       0.00361715       5.89214794      26.51128673  F      -0.00063136      -0.00732584       0.05514380
Ti       2.93242982       5.89666135      26.54391931  F      -0.00009128      -0.01537599       0.01347678
Ti       2.94602938       2.49899105      27.17700019  F       0.00525591      -0.00079423      -0.02930137
V        5.86022077       2.48477552      27.12674947  F      -0.00418173       0.01382154      -0.03905308
Ti       4.44597893       0.49645484      28.34318124  F       0.00794963       0.01104151      -0.01375765
Ti       1.42666699       0.50275295      28.34174922  F      -0.00804306       0.00766221      -0.01270604
Ti       1.45654960       4.50772202      28.61873566  F       0.00270571       0.06381836      -0.01412382
Ti       4.41547976       4.50963763      28.61877906  F      -0.00217216       0.06084266      -0.01489319
Ti       2.93744451       2.41422156      29.95771321  F       0.00004837      -0.07651007       0.04465480
Ti       5.87094891       2.39254340      29.89496491  F      -0.00007798      -0.08422989       0.07022465
Ti       2.93487258       6.28666165      30.50053373  F      -0.00134528       0.12352902       0.07545843
Ti       0.00220200       6.30494959      30.52270827  F       0.00183305       0.12615646       0.10611615
Ti       4.40953730       4.17443914      31.67070707  F       0.00353660       0.00942726       0.24449428
Ti       1.46307926       4.17414284      31.67035991  F      -0.00342412       0.00798644       0.24367302
Ti       4.41399414       1.35208783      32.17716309  F      -0.00777024      -0.29236833       0.36912223
Ti       1.45850498       1.35231523      32.17738006  F       0.00729021      -0.29285763       0.37160449
Ti       2.93611157       6.09450736      33.33128050  F      -0.00026170       0.39986941       0.08604248
Ti       0.00008808       6.09075882      33.35297770  F       0.00045655       0.42153112       0.09582083
Ti       0.00001762       3.16195296      33.95264488  F      -0.00140510      -0.37187577       0.11486322
Ti       2.93615267       3.16169111      33.93554749  F       0.00210109      -0.36672841       0.12462005
Ti       1.46903934       1.01170753      35.15631869  F      -0.00576672       0.09781546      -1.21118752
Ti       4.40317792       1.01148014      35.15631869  F       0.00551649       0.10026048      -1.20995021
