64
Lattice="5.871999 0.0 0.0 0.0 6.890708 0.0 0.0 0.0 43.401158" Properties=species:S:1:pos:R:3:move_mask:L:1:forces:R:3 job_name=BondOrder-VacuumGB-T1m-Al-Al-38-d-2.03 top_level=BondOrder-VacuumGB solute=Al energy=-482.04265516 stress_kbar_3x3="_JSON [[-17.67511993, -0.0001529, 0.00065168], [-0.00015289, -28.33106146, -0.39060775], [0.00065168, -0.39060774, -15.34779901]]" pbc="T T T"
Ti       2.93608171       0.10435977      34.54311186  F      -0.00931420      -0.30115638      -0.18575860
Ti       2.93598776       2.94263551      34.54293825  F      -0.00544454       0.13834230      -0.97959714
Ti       5.87198726       0.10434599      34.54311186  F       0.00924301      -0.30127491      -0.18572384
Ti       0.00006459       2.94263551      34.54293825  F       0.00545005       0.13834171      -0.97967839
Ti       4.40403448       5.03080255       8.55493246  F      -0.00010179      -0.01401236       0.92021403
Ti       1.46804085       5.03093347       8.55402103  F      -0.00008177      -0.01709506       0.92367765
Ti       4.40403448       1.32198922       9.17005707  F      -0.00009317      -0.26915506       0.14766712
Ti       1.46800562       1.31969461       9.16797381  F       0.00017001      -0.25912578       0.14477735
Ti       2.93560020       3.41243020      10.34809470  F      -0.00321183       0.13819950      -0.25012278
Ti       0.00045802       3.41243709      10.34809470  F       0.00323967       0.13823356      -0.25012181
Ti       2.93619915       6.23015784      10.76014529  F       0.00133259       0.14477211      -0.56495392
Ti       5.87186394       6.23015095      10.76014529  F      -0.00129209       0.14482141      -0.56484572
Ti       1.46802324       1.49593136      11.97581173  F      -0.00000132      -0.03144611      -0.01512478
Ti       4.40403448       1.49261693      11.97924042  F       0.00006085      -0.02628893      -0.01364852
Ti       1.46802324       4.44079946      12.57761219  F      -0.00001637       0.00598184       0.05175148
Ti       4.40402861       4.44162634      12.58043326  F       0.00004191      -0.00201445       0.05030949
Ti       2.93260548       6.59804585      13.74102363  F       0.00151469       0.04553669      -0.11438483
Ti       0.00343512       6.59804585      13.74102363  F      -0.00152220       0.04553124      -0.11443366
Ti       2.93464307       2.52020065      14.23970293  F      -0.00229118       0.02363896       0.03183282
Ti       0.00138579       2.52019376      14.23970293  F       0.00233866       0.02363500       0.03182584
Ti       4.40399338       4.68240146      15.40385220  F       0.00010589      -0.02095549      -0.01257063
Ti       1.46799975       4.68788647      15.40346158  F      -0.00004841      -0.02688989      -0.01215769
Ti       4.40399925       0.73264764      15.98903001  F       0.00007980       0.00545670      -0.02456084
Ti       1.46800562       0.73063555      16.01667655  F      -0.00002107       0.00536371      -0.02943508
Ti       0.00284792       2.90214571      17.21862822  F       0.00524690      -0.00746742      -0.00475648
Ti       2.93312809       2.90214571      17.21862822  F      -0.00519281      -0.00738739      -0.00485252
Ti       0.00973577       5.70516169      17.64001006  F       0.00256242       0.02068431       0.02476515
Ti       2.92625785       5.70516169      17.64001006  F      -0.00254192       0.02071140       0.02483413
Ti       1.46798213       0.93446958      18.81952333  F       0.00008132      -0.01716860       0.00533156
Ti       4.40398751       0.94260062      18.76444726  F      -0.00002573      -0.00002976      -0.00482858
Ti       1.46799388       4.08696160      19.43529896  F       0.00001778      -0.00155344      -0.01860355
Ti       4.40398751       4.08086333      19.42848498  F       0.00001376      -0.00151602      -0.01224595
Ti       2.98188330       2.09504397      20.84036805  F       0.00514704       0.01075633       0.00283254
Ti       5.82610933       2.09505775      20.84032465  F      -0.00527997       0.01065467       0.00327682
Ti       2.94591143       6.20362861      20.84410055  F      -0.00384329      -0.00241133       0.00858939
Ti       5.86204009       6.20363551      20.84410055  F       0.00387108      -0.00240625       0.00857350
Ti       4.40398751       3.98033479      22.27438571  F       0.00000619      -0.01173564       0.00652788
Ti       1.46799388       4.08700984      22.24561074  F       0.00003356       0.00000491       0.01043763
Al       4.40398751       0.94093996      22.87822602  F       0.00011720       0.00300018      -0.00926659
Ti       1.46799388       0.95320542      22.92436145  F      -0.00002646      -0.00656905      -0.00032322
Ti       2.94147220       5.71875706      24.05192354  F      -0.00255428      -0.00614517       0.00831960
Ti       5.86653804       5.71875706      24.05192354  F       0.00259289      -0.00607589       0.00827456
Ti       2.92074992       2.86935972      24.47729829  F      -0.00458520      -0.00251211      -0.00041216
Ti       0.01524371       2.86935283      24.47729829  F       0.00461417      -0.00244141      -0.00040018
Ti       4.40402861       0.70146718      25.67208877  F      -0.00007998      -0.00828167      -0.00100853
Ti       1.46801737       0.71705397      25.75763245  F       0.00008540      -0.00566464      -0.00504997
Ti       4.40400512       4.70305981      26.24428963  F      -0.00004168       0.01648215      -0.00573400
Ti       1.46799975       4.65922801      26.27653669  F       0.00011647       0.01890155      -0.01067426
Ti       5.85137654       2.51523245      27.45010400  F      -0.00084918      -0.02074252       0.01942790
Ti       2.95668068       2.51522556      27.45010400  F       0.00084567      -0.02074582       0.01939442
Ti       5.85652041       6.57414887      27.95056276  F       0.00325724       0.00955161      -0.01672994
Ti       2.95150745       6.57416955      27.95056276  F      -0.00329512       0.00940066      -0.01683480
Ti       1.46803498       4.43262019      29.11618766  F      -0.00006648      -0.03729202      -0.01746277
Ti       4.40402274       4.43115936      29.10585818  F      -0.00003218      -0.02065582      -0.02504487
Ti       1.46804085       1.48560908      29.69255504  F      -0.00001725       0.01656315       0.00090738
Ti       4.40403448       1.49205878      29.71178175  F       0.00001342       0.01420885      -0.00818412
Ti       2.93581160       6.23099851      30.92480071  F      -0.00442351      -0.00441382       0.05564020
Ti       0.00027598       6.23099162      30.92480071  F       0.00430307      -0.00434932       0.05567963
Ti       2.93534184       3.41035609      31.33997619  F       0.00486002       0.00532959      -0.03575328
Ti       0.00072226       3.41035609      31.33997619  F      -0.00493934       0.00537759      -0.03583177
Ti       4.40404623       1.32374635      32.52040089  F      -0.00011578      -0.06356973       0.68925177
Ti       1.46802911       1.31766875      32.50933359  F       0.00004338      -0.06213773       0.70168150
Ti       4.40403448       5.02974138      33.13144579  F      -0.00009036       0.21900398       0.29266144
Ti       1.46802911       5.03250456      33.12988335  F       0.00003433       0.21420133       0.28265301
