64
Lattice="5.088765 0.0 0.0 0.0 9.739025 0.0 0.0 0.0 38.303587" Properties=species:S:1:pos:R:3:move_mask:L:1:forces:R:3 job_name=BondOrder-VacuumGB-T2-V-V-37-d-1.39 top_level=BondOrder-VacuumGB solute=V energy=-481.51549522 stress_kbar_3x3="_JSON [[-19.86183887, -1.28160884, 0.22946013], [-1.28160884, -20.96566045, 0.21258426], [0.22946011, 0.21258427, -22.42855472]]" pbc="T T T"
Ti       2.53783326       9.26222181       8.34914777  F       0.86786358       0.02150209       0.94834322
Ti       5.08356428       4.39204706       8.34581536  F       0.86949426       0.02787716       0.93156839
Ti       1.26393218       1.88640045       8.96035811  F      -0.83677655      -0.44196316       0.65122770
Ti       3.80729184       6.75272829       8.95821311  F      -0.83496967      -0.42149600       0.65207206
Ti       2.70948748       4.07896662       9.73466512  F      -0.17072994      -0.07555649       0.11964049
Ti       0.16115610       8.94306423       9.74427932  F      -0.17162378      -0.07835239       0.11747394
Ti       1.03199136       6.22287663      10.47032381  F       0.10469218       0.25449506      -0.66391123
Ti       3.57769185       1.35025738      10.46637854  F       0.09648540       0.25838177      -0.65890683
Ti       0.22279122       3.50289356      11.11378577  F       0.04361878       0.25374034      -0.45314716
Ti       2.76512804       8.36759498      11.12075702  F       0.05062770       0.25707441      -0.45226900
Ti       1.10112224       0.87290881      11.85331312  F      -0.05338626       0.01610221      -0.19575407
Ti       3.64446663       5.74450546      11.84990410  F      -0.04882267       0.01457773      -0.18509733
Ti       2.75418210       3.10854096      12.53775992  F       0.03036797      -0.08080927      -0.06225985
Ti       0.21127535       7.97168413      12.55886519  F       0.01865227      -0.08344747      -0.03938807
Ti       3.60437734       0.43434104      13.20466367  F       0.01373557       0.03289346      -0.03612117
Ti       1.06399970       5.30892757      13.21477582  F      -0.00178447       0.04114975      -0.03163114
Ti       2.75566293       7.51299553      13.95365201  F      -0.00566483      -0.03290020       0.02565551
Ti       0.20716362       2.65504326      13.93369584  F      -0.02070083      -0.03166847       0.02693021
Ti       3.61161865       4.86937615      14.64913024  F       0.01421133       0.01990143      -0.03210141
Ti       1.05774560       9.73591825      14.65342024  F       0.00621320       0.02019399      -0.02591145
Ti       0.22086258       7.05682934      15.36345383  F       0.00351304      -0.00076814      -0.01368940
Ti       2.75031973       2.19570214      15.30753060  F       0.01330396      -0.00057322       0.01178104
Ti       1.10862817       4.44318668      16.01576392  F       0.00903240       0.00512441       0.00074769
Ti       3.63987656       9.29331852      16.00810320  F      -0.00110392       0.01364151      -0.01609069
Ti       0.21911204       1.80802077      16.74046779  F      -0.00560497       0.00809655      -0.00880997
Ti       2.79729921       6.64096324      16.79225424  F      -0.01589534       0.00534632       0.00148242
Ti       1.02904497       8.82081998      17.39323752  F       0.00660603       0.02150132       0.00599587
Ti       3.60627545       3.95410258      17.38163153  F      -0.01043478       0.01507283      -0.00992117
Ti       2.69552900       1.23267813      18.09273762  F       0.00932752      -0.00950979      -0.00278408
Ti       0.21696967       6.09175040      18.25388081  F       0.00900891      -0.00283743      -0.01157969
Ti       3.78342553       8.31964002      18.86267803  F       0.00097603      -0.01523401       0.01199111
Ti       1.30847414       3.44951396      18.87934009  F       0.00276469      -0.01773701      -0.00142476
Ti       5.06467479       0.92829465      19.50522070  F       0.00539996       0.00170167       0.00598878
Ti       2.71183340       5.81213325      19.60013699  F      -0.00061468       0.00566031      -0.00627135
Ti       3.86061701       3.43987233      20.13512319  F       0.00339890      -0.03253248       0.00727497
Ti       1.22154786       8.25257709      20.12305756  F       0.00764017      -0.01594448      -0.00767906
Ti       2.38743990       1.22553943      20.86220187  F      -0.01036444       0.00719993      -0.00630906
V        5.06853207       6.11416963      20.94884459  F      -0.00904878       0.00178672      -0.02244822
Ti       1.45416040       3.96995772      21.57526145  F       0.00948900       0.00035793      -0.00767083
Ti       4.02278069       8.76451868      21.60012048  F       0.02860605       0.00514938       0.00038197
Ti       4.83712557       1.75813749      22.25599280  F      -0.00295714       0.01354666       0.00039728
Ti       2.28239252       6.67240081      22.26204476  F       0.00506948       0.01463554       0.00575543
Ti       1.43625812       9.31821147      22.98766792  F       0.01795290       0.00462002       0.01303981
Ti       3.99966751       4.46560592      22.88646984  F       0.01810403       0.00530433       0.01631761
Ti       4.88055818       7.06359796      23.69743338  F      -0.02176779       0.02625936       0.04386071
Ti       2.33506124       2.21788764      23.66725016  F      -0.00063856       0.00467780       0.03555195
Ti       1.49056033       4.87849188      24.33327293  F      -0.02960384      -0.01359844       0.02023248
Ti       4.00604883       9.73838222      24.34951365  F      -0.03738032      -0.02268006       0.00074688
Ti       2.33194183       7.53476225      25.06111769  F       0.01838637      -0.00717788       0.02633413
Ti       4.87108799       2.67129769      25.02875116  F       0.01476742      -0.00473377       0.02514456
Ti       4.00053260       5.29896455      25.77168753  F       0.06949177      -0.01050703       0.13654275
Ti       1.45552419       0.43805161      25.77766289  F       0.06761431      -0.00473639       0.15731406
Ti       4.86250324       7.97761520      26.46000299  F      -0.11048948      -0.00007027       0.18349264
Ti       2.31646180       3.10467456      26.45000575  F      -0.12471987      -0.00104021       0.16132870
Ti       1.43216676       5.74141819      27.12104629  F       0.09194475       0.12388890       0.43945230
Ti       3.97675281       0.87674599      27.12660031  F       0.10293202       0.12328095       0.45126339
Ti       2.31354594       8.36971809      27.88478151  F       0.11521508       0.31915765       0.37108595
Ti       4.85793353       3.50111131      27.87202642  F       0.12883315       0.30408385       0.37695283
Ti       1.50491065       1.35215649      28.52433651  F      -0.25640112       0.12488933       0.13112496
Ti       4.04858072       6.21693583      28.51970177  F      -0.25514814       0.13275541       0.13370665
Ti       4.91126888       8.95598791      29.25562859  F      -0.76492152      -0.58602475      -0.59128318
Ti       2.36880484       4.08520934      29.24919359  F      -0.78104779      -0.58946940      -0.58797312
Ti       3.80940368       1.88795869      30.02870989  F       0.84760129       0.04313804      -1.05710282
Ti       1.26413574       6.75746145      30.03001221  F       0.85965997       0.03260210      -1.06066433
