64
Lattice="5.871999 0.0 0.0 0.0 6.890708 0.0 0.0 0.0 43.401158" Properties=species:S:1:pos:R:3:move_mask:L:1:forces:R:3 job_name=BondOrder-VacuumGB-T1m-V-V-41-d-3.20 top_level=BondOrder-VacuumGB solute=V energy=-484.9486203 stress_kbar_3x3="_JSON [[-18.0182734, 0.00015604, 0.00010989], [0.00015604, -23.33585293, 0.44708753], [0.0001099, 0.44708753, -22.78975234]]" pbc="T T T"
Ti       2.93598776       0.00114386       8.19939017  F       0.00081564      -0.11413521       1.17639401
Ti       2.93600537       2.81630127      35.19894675  F       0.00056822       0.10601354      -1.25181142
Ti       0.00000000       0.00107495       8.19787113  F      -0.00077048      -0.11523917       1.17886365
Ti       0.00000000       2.81511606      35.19938077  F      -0.00062113       0.11136953      -1.24274272
Ti       4.40448075       4.80199659       9.38741007  F      -0.00042854       0.28366911      -0.19927262
Ti       1.46751237       4.80202415       9.38741007  F       0.00042920       0.28326813      -0.19903974
Ti       4.40517365       1.60027735      10.00913166  F      -0.00544450      -0.45144911      -0.39610403
Ti       1.46684884       1.60026357      10.00913166  F       0.00541073      -0.45128709      -0.39577646
Ti       2.93599950       3.56781566      11.41068525  F      -0.00005910       0.12694672      -0.02206069
Ti       5.87198726       3.56856675      11.41150987  F       0.00011600       0.12488085      -0.02480376
Ti       2.93605822       6.40239109      11.43746377  F       0.00014249       0.30758275      -0.22178325
Ti       0.00005285       6.40213613      11.43742037  F      -0.00020312       0.30632103      -0.22075289
Ti       1.46765330       1.60541093      12.84331408  F       0.00037817      -0.10251189      -0.00237252
Ti       4.40442203       1.60539026      12.84335748  F      -0.00048384      -0.10241262      -0.00242486
Ti       1.46812306       4.75207341      13.46399404  F       0.00134042      -0.09505939      -0.06863739
Ti       4.40387594       4.75208030      13.46399404  F      -0.00132245      -0.09494082      -0.06871692
Ti       2.93598776       6.85250591      14.63404586  F      -0.00005528      -0.01083633      -0.01299758
Ti       0.00002936       6.85180995      14.63534789  F       0.00009462      -0.00991843      -0.01115767
Ti       2.93602886       2.77329636      15.07040110  F      -0.00006847       0.03102451       0.05148748
Ti       0.00004698       2.77234544      15.06862165  F       0.00010171       0.03007133       0.05459474
Ti       4.40321240       4.93241702      16.28194442  F       0.00009046       0.02002758      -0.01691781
Ti       1.46883945       4.93244458      16.28194442  F      -0.00009121       0.02002358      -0.01673424
Ti       4.40349426       0.97129353      16.88756418  F       0.00036789      -0.00338981      -0.03568202
Ti       1.46856346       0.97131420      16.88760758  F      -0.00042241      -0.00353818      -0.03573116
Ti       0.00000587       3.13208174      18.04303321  F       0.00010035       0.02182201       0.01457833
Ti       2.93600537       3.13378375      18.04637510  F      -0.00002422       0.01907799       0.01275297
Ti       0.00002936       5.95214534      18.55659911  F       0.00010528      -0.00382546       0.00870961
Ti       2.93604060       5.94782486      18.56015801  F      -0.00015767      -0.00263432       0.00769069
Ti       1.46968501       1.22304554      19.72691134  F      -0.00015069       0.00067202      -0.00625666
Ti       4.40234335       1.22303865      19.72686794  F       0.00021199       0.00071774      -0.00611214
Ti       1.46647890       4.14690387      20.31885973  F       0.00003469      -0.00020322      -0.01032470
Ti       4.40555533       4.14686253      20.31881633  F      -0.00004063       0.00012584      -0.01019598
Ti       2.93604648       2.24430360      21.95525700  F      -0.00010099       0.00967805       0.00187702
Ti       5.87199313       2.24498578      21.97943144  F       0.00010534       0.00579100      -0.00218477
Ti       2.93601712       6.29787283      21.54437823  F       0.00009346      -0.00563368      -0.00795305
Ti       0.00002349       6.31667068      21.51490885  F      -0.00008408      -0.00853912      -0.00360188
Ti       4.46185018       4.35944776      23.16532468  F      -0.00159366      -0.00742451      -0.00643680
Ti       1.41016643       4.35944776      23.16532468  F       0.00161098      -0.00751600      -0.00638946
Ti       4.43311849       0.56505873      23.72311636  F      -0.00574736       0.00205323      -0.00218992
Ti       1.43896271       0.56510696      23.72311636  F       0.00565918       0.00184715      -0.00229815
Ti       2.93598776       5.50038363      25.11581612  F       0.00005814       0.00300096       0.00933285
V        0.00000587       5.61611996      25.11859380  F       0.00005468      -0.01785376      -0.00202998
Ti       2.93606409       2.63129265      25.13039891  F       0.00002303       0.00754491      -0.00201572
Ti       0.00007046       2.71651692      25.13304638  F      -0.00001110       0.00643811      -0.00053373
Ti       4.42978320       0.56551351      26.52800300  F       0.00681432      -0.00371662       0.04732846
Ti       1.44228627       0.56548595      26.52800300  F      -0.00690206      -0.00349280       0.04745864
Ti       4.45990068       4.38497783      27.08536067  F      -0.00150730       0.00739741      -0.00798084
Ti       1.41212181       4.38495716      27.08540407  F       0.00144737       0.00745505      -0.00843527
Ti       5.87199313       2.26789738      28.26261708  F      -0.00040171       0.01914634      -0.02293818
Ti       2.93602299       2.26871737      28.28470827  F       0.00043303       0.02132018      -0.01427564
Ti       0.00000587       6.34457805      28.74441334  F      -0.00034938       0.04730862      -0.02246150
Ti       2.93601124       6.32691027      28.71772163  F       0.00046801       0.04008878      -0.01837698
Ti       1.46656111       4.17692669      29.93143501  F       0.00527938      -0.10430241       0.05212060
Ti       4.40547312       4.17690601      29.93139161  F      -0.00536483      -0.10451130       0.05230143
Ti       1.47033681       1.26485836      30.52511945  F       0.00658615       0.11750986       0.10441311
Ti       4.40165045       1.26487214      30.52511945  F      -0.00651344       0.11812832       0.10538160
Ti       2.93600537       5.99102271      31.69300121  F       0.00166391       0.02743005       0.24416677
Ti       0.00000000       5.99568083      31.69590909  F      -0.00175888       0.03063780       0.23833858
Ti       2.93601124       3.18090241      32.20782575  F       0.00172258      -0.26937929       0.40798280
Ti       0.00000000       3.17993771      32.20930139  F      -0.00184239      -0.26493639       0.40211041
Ti       4.40374675       1.02345619      33.36281736  F      -0.00035913       0.36908994       0.08767484
Ti       1.46821701       1.02347686      33.36281736  F       0.00047962       0.37055701       0.08859969
Ti       4.40334159       4.97205237      33.97091099  F      -0.00279760      -0.32344346       0.10657887
Ti       1.46867503       4.97206616      33.97091099  F       0.00287062      -0.32390664       0.10777397
