64
Lattice="5.872 0.0 0.0 0.0 6.890708 0.0 0.0 0.0 43.394398" Properties=species:S:1:pos:R:3:move_mask:L:1:forces:R:3 job_name=BondOrder-VacuumGB-T1g-V-V-31-d-0.22 top_level=BondOrder-VacuumGB solute=V energy=-485.81640407 stress_kbar_3x3="_JSON [[-18.38906654, -0.00015376, 0.00015917], [-0.00015376, -29.14899136, -2.57670968], [0.00015916, -2.57670971, -17.86903056]]" pbc="T T T"
Ti       4.40394715       5.19850171      34.65077396  F       0.00037889      -0.28341482      -0.46045307
Ti       1.46807634       5.20015548      34.64999286  F      -0.00025841      -0.28988299      -0.46577855
Ti       0.00205520       3.17523136       8.54913035  F      -0.00643745       0.16923577       0.97782834
Ti       2.93380387       3.17523825       8.54913035  F       0.00645925       0.16915581       0.97758799
Ti       5.86879389       6.62276971       9.17140602  F       0.01473486      -0.19280211       0.15878325
Ti       2.93916501       6.62279038       9.17127583  F      -0.01500523      -0.19281756       0.15920683
Ti       4.40388256       1.76005220      10.46742311  F       0.00014664       0.03218894      -0.52740736
Ti       1.46795302       1.76087219      10.46551375  F       0.00015808       0.02831272      -0.51414293
Ti       1.46793541       4.58761288      10.67871043  F       0.00024586       0.12979332      -0.35755019
Ti       4.40394715       4.58788162      10.67289558  F      -0.00006552       0.11815759      -0.35167648
Ti       0.00123312       6.71978399      11.99590399  F      -0.00400095      -0.11100483       0.00668411
Ti       2.93466706       6.71970130      11.99577381  F       0.00393843      -0.11050407       0.00690591
Ti       2.93343394       2.87726336      12.60446703  F       0.00224520      -0.05357252       0.09776538
Ti       0.00247211       2.87727025      12.60438024  F      -0.00233711      -0.05356073       0.09821681
Ti       4.40398238       5.00724322      13.76826139  F      -0.00008024       0.06438425      -0.08582485
Ti       1.46800000       5.00907615      13.77563843  F      -0.00016657       0.07119390      -0.08756545
Ti       4.40388843       0.93617159      14.23626997  F       0.00007427       0.03235280       0.03867372
Ti       1.46791192       0.93799763      14.23956794  F       0.00020587       0.01710355       0.03765555
Ti       2.93934117       3.10203826      15.42883481  F       0.00431082      -0.02562644      -0.03480642
Ti       5.86852965       3.10201069      15.42879142  F      -0.00417216      -0.02556735      -0.03466379
Ti       2.93769114       6.04878752      16.03062833  F      -0.00233013       0.00657085      -0.04980681
Ti       5.87025602       6.04878062      16.03049814  F       0.00219376       0.00667741      -0.04998921
Ti       4.40387669       1.31392709      17.20865605  F       0.00028949       0.01305836      -0.00472484
Ti       1.46792954       1.31112946      17.22193473  F       0.00007035       0.00910883       0.01011468
Ti       4.40396477       4.15352584      17.69128854  F       0.00004651       0.00746475       0.03340772
Ti       1.46809395       4.15724682      17.65839559  F      -0.00081227       0.00759124       0.02952518
Ti       2.93518379       6.27979161      18.88042523  F      -0.00318555       0.00368989       0.00482531
Ti       0.00072226       6.27983985      18.88016487  F       0.00368871       0.00359663       0.00521580
Ti       2.97078573       2.45828764      19.43470188  F       0.01269355       0.00086656      -0.00315737
Ti       5.83722014       2.45826008      19.43474527  F      -0.01260412       0.00047310      -0.00345557
Ti       1.46789430       4.60000927      20.68758494  F       0.00014095      -0.01524982       0.00826380
V        4.40442866       4.57341113      20.68359265  F      -0.00054312      -0.02693951       0.00696969
Ti       4.40411744       0.48433408      21.04819238  F      -0.00032529       0.00381784      -0.01936166
Ti       1.46787669       0.57121213      21.03200627  F       0.00012722       0.02343397      -0.01977334
Ti       5.81105451       2.64726531      22.21033776  F       0.00662670      -0.00577448      -0.00533827
Ti       2.99722147       2.64721018      22.21025097  F      -0.00669339      -0.00569938      -0.00516211
Ti       5.86697944       5.82822973      22.80670697  F      -0.00204394       0.00528811       0.00009922
Ti       2.94107341       5.82822284      22.80649000  F       0.00250524       0.00586930      -0.00013591
Ti       4.40405872       3.88595965      24.22830745  F      -0.00025145      -0.00162349       0.00104307
Ti       1.46817616       3.87508611      24.19567486  F      -0.00017855      -0.00296211      -0.00152524
Ti       4.40426424       1.04157186      24.25634023  F      -0.00055111       0.00147720       0.00307439
Ti       1.46812918       1.03849171      24.26766617  F       0.00034720      -0.00335934       0.01057548
Ti       0.01397536       5.84139099      25.65867359  F      -0.01061102       0.00305424      -0.01177295
Ti       2.92225952       5.84124628      25.65854341  F       0.01060562       0.00364090      -0.01199555
Ti       2.93743864       2.72617081      26.27270433  F       0.00446177       0.00631384      -0.01196950
Ti       5.87062595       2.72615702      26.27270433  F      -0.00432942       0.00613651      -0.01216480
Ti       4.40396477       0.62421546      27.43567419  F       0.00035785      -0.01796296       0.01505320
Ti       1.46817616       0.62155564      27.43918914  F      -0.00047571      -0.02070641       0.01365270
Ti       1.46805872       4.70328720      27.88858152  F       0.00004967      -0.00165579      -0.02106476
Ti       4.40387082       4.70325964      27.87543302  F       0.00066047       0.00264994      -0.00662527
Ti       2.93730946       2.55718997      29.08370664  F      -0.00151610      -0.03759547      -0.01661084
Ti       5.87084322       2.55721754      29.08361985  F       0.00115136      -0.03750752      -0.01622089
Ti       2.93540693       6.50379475      29.68693217  F       0.00034749       0.01719696       0.01742027
Ti       0.00056371       6.50375340      29.68671519  F      -0.00026402       0.01749311       0.01815906
Ti       4.40395890       4.35272932      30.86960309  F       0.00031997       0.00664312       0.04353355
Ti       1.46793541       4.35342528      30.87589528  F       0.00015749       0.00469044       0.03537830
Ti       4.40410570       1.54013525      31.34572642  F       0.00004299       0.01078068      -0.02369344
Ti       1.46804110       1.53881913      31.34607358  F      -0.00014279       0.01506616      -0.03052285
Ti       2.93799648       6.30253784      32.50674354  F      -0.00535943      -0.09002914       0.74036150
Ti       5.87007986       6.30236557      32.50665675  F       0.00517393      -0.08955484       0.74036179
Ti       0.00070464       3.26118605      33.12268363  F      -0.00592231       0.26792620       0.23220227
Ti       2.93534821       3.26116538      33.12268363  F       0.00564188       0.26785960       0.23214620
Ti       1.46797651       1.13199173      34.43653582  F       0.00005981       0.06770131      -0.75486367
Ti       4.40400000       1.13200551      34.43688297  F       0.00000525       0.06735800      -0.76088714
