64
Lattice="5.088765 0.0 0.0 0.0 9.739025 0.0 0.0 0.0 38.303587" Properties=species:S:1:pos:R:3:move_mask:L:1:forces:R:3 job_name=BondOrder-VacuumGB-T2-Al-Al-46-d-4.86 top_level=BondOrder-VacuumGB solute=Al energy=-477.59789002 stress_kbar_3x3="_JSON [[-18.74771279, 0.74488242, 0.26511201], [0.74488243, -19.32070199, 1.99177759], [0.26511202, 1.9917776, -20.05294296]]" pbc="T T T"
Ti       2.54971553       9.28782571       8.38549787  F       0.80115814       0.03828873       0.91346490
Ti       0.01012155       4.41892677       8.39285216  F       0.80409178       0.05329253       0.88588107
Ti       1.28719802       1.95024950       8.93385202  F      -0.80012210      -0.36551404       0.57874901
Ti       3.82826264       6.82008338       8.93101756  F      -0.79574529      -0.34540827       0.58684462
Ti       2.64919070       4.18206394       9.70448189  F      -0.10922063      -0.20671327       0.15707491
Ti       0.10407033       9.04672641       9.71022743  F      -0.10493961      -0.19046131       0.14612275
Ti       0.98848751       6.26791962      10.47821435  F       0.05790356       0.23344626      -0.71890378
Ti       3.53021877       1.39556333      10.48215962  F       0.06851376       0.24435584      -0.72346232
Ti       0.22311690       3.51375257      11.10037951  F       0.08625887       0.25562658      -0.41802456
Ti       2.76360141       8.38529079      11.10547389  F       0.08562104       0.24732140      -0.43875034
Ti       1.08693985       0.86691931      11.86001625  F      -0.05911924       0.03334547      -0.19486150
Ti       3.63269123       5.73382175      11.85645402  F      -0.05611054       0.04222778      -0.18687043
Ti       2.73608646       3.11551410      12.53898563  F       0.02047350      -0.11544371      -0.00427408
Ti       0.19097117       7.98446173      12.53802804  F       0.02216048      -0.11365342      -0.00518648
Ti       3.58664808       0.42639399      13.19328751  F       0.00906956       0.04509725      -0.01891967
Ti       1.04313067       5.29541954      13.19217670  F       0.00590431       0.04863426      -0.02352081
Ti       2.72162418       7.51561533      13.93300638  F      -0.00938539      -0.02789371       0.03916211
Ti       0.17462606       2.64463224      13.93166575  F      -0.00715537      -0.02613434       0.04503194
Ti       3.59112619       4.85604343      14.65882105  F       0.00294765       0.00473163      -0.03196861
Ti       1.04740014       9.72672461      14.65613980  F       0.00110461       0.00786429      -0.02286412
Ti       0.17160333       7.05928358      15.27776871  F       0.00483883      -0.01210165      -0.00089331
Ti       2.71707992       2.18917700      15.27918594  F       0.00618345      -0.01382351       0.00546091
Ti       1.08940281       4.45573054      15.99829749  F       0.00299138       0.00176767      -0.01025632
Ti       3.63819727       9.33217723      16.00320035  F       0.00222807       0.00041225      -0.01454333
Ti       0.26213755       1.77593069      16.73767163  F      -0.00825811       0.00144404      -0.01235361
Ti       2.80507484       6.64407972      16.72472501  F      -0.00592917      -0.00723635      -0.00191965
Ti       0.98714917       8.71951465      17.35872599  F      -0.00841409       0.01672633      -0.00652120
Ti       3.51425531       3.84443142      17.37040858  F      -0.00237029       0.01645405      -0.00878771
Ti       2.60005868       1.05314895      18.19355266  F       0.01492952       0.00184203       0.01418388
Ti       0.06015938       5.91698359      18.17378801  F       0.01282923      -0.00402907       0.01455043
Ti       3.86005725       8.18557260      18.91109376  F       0.00438326      -0.00503242       0.00959911
Ti       1.30081555       3.32183534      18.93637413  F       0.00144839      -0.01833378       0.00721068
Ti       0.03820645       0.87417488      19.40413753  F      -0.01115796      -0.00551087       0.02592416
Ti       2.56756691       5.75186817      19.40409923  F      -0.01395088      -0.00144334       0.00919600
Ti       3.85567582       3.45877577      20.12665809  F      -0.00710569      -0.00915776      -0.01250068
Ti       1.33639620       8.31326096      20.12118068  F      -0.01133859      -0.00864148      -0.01746654
Ti       2.30692037       1.32985412      20.94620164  F      -0.00856600      -0.00077312      -0.00452599
Ti       4.83569054       6.18795249      20.92708815  F       0.00191648       0.00012772      -0.00778631
Ti       1.50376568       4.06959768      21.63049522  F       0.02015451       0.01230679      -0.02010634
Ti       4.07137839       8.91645721      21.59939271  F       0.01242711       0.00796041      -0.02521776
Ti       4.91981800       1.82381747      22.26855637  F      -0.00576540       0.01623698      -0.00540986
Ti       2.42231829       6.71182438      22.31750836  F      -0.01194759       0.01443409      -0.00577515
Ti       1.48038789       9.29842177      23.01501668  F       0.01055021       0.01870524       0.00453920
Ti       4.05761837       4.43449947      23.03619856  F      -0.00404857       0.00172263       0.00480742
Ti       4.96037546       7.09191905      23.66556480  F       0.00009391       0.00152039       0.02895749
Ti       2.36758863       2.23958619      23.68728293  F       0.00307202       0.02144996       0.02493035
Al       1.52978962       4.88728622      24.36824410  F      -0.02601981       0.00644980      -0.01188889
Ti       4.04547149       0.00643750      24.35709776  F      -0.03879034      -0.00490015      -0.00053667
Ti       2.36150246       7.53333062      25.07586457  F      -0.00744058       0.00876502       0.04681708
Ti       4.96998305       2.67349871      25.10018735  F      -0.00381795       0.00501019       0.04084571
Ti       4.07108833       5.31940676      25.76287771  F       0.06710373      -0.03553617       0.15428685
Ti       1.51601942       0.46177587      25.77387083  F       0.02511973      -0.02482662       0.12604668
Ti       4.88654766       8.00217702      26.48539827  F      -0.10601992       0.03116256       0.22508759
Ti       2.38656972       3.11547514      26.44793736  F      -0.08540391       0.01142505       0.21439776
Ti       1.42943918       5.73544817      27.12227201  F       0.10223239       0.06458752       0.46458597
Ti       3.99596798       0.87784650      27.14678630  F       0.14521790       0.04877891       0.48545947
Ti       2.34052149       8.35875194      27.88263651  F       0.07472192       0.26836762       0.33375106
Ti       4.87285379       3.46958609      27.90297572  F       0.13709298       0.33826873       0.30705889
Ti       1.51477777       1.31774852      28.51449248  F      -0.23437322       0.26269065       0.18803888
Ti       4.04599054       6.17302256      28.51847606  F      -0.27066552       0.23045380       0.15645858
Ti       4.88002895       8.90151755      29.24881055  F      -0.70541991      -0.60381383      -0.50540902
Ti       2.32306193       4.03867628      29.23138242  F      -0.71364914      -0.54897451      -0.48578560
Ti       3.82651211       1.87999217      30.04426114  F       0.79672395       0.01046186      -1.13884580
Ti       1.28452642       6.74484941      30.03422560  F       0.82078463       0.02159239      -1.16038906
