52
Lattice="4.6568 0.0 0.0 0.0 7.770572 0.0 0.0 0.0 41.044546" Properties=species:S:1:pos:R:3:move_mask:L:1:forces:R:3 job_name=BondOrder-VacuumGB-CSL7-Al-Al-34-d-4.60 top_level=BondOrder-VacuumGB solute=Al energy=-388.33350268 stress_kbar_3x3="_JSON [[-21.95139895, -0.53303904, -0.87987419], [-0.53303905, -27.22735042, -0.72946742], [-0.87987421, -0.72946742, -19.32589019]]" pbc="T T T"
Ti       1.81963063       7.40436048       8.21124874  F       1.05285880      -0.13300375       0.86347517
Ti       4.63018639       5.60584605       8.88191662  F      -0.09069037      -0.08928083      -0.00773470
Ti       2.45775193       2.28046085       9.14053831  F      -0.58568734       0.29321965       0.63247107
Ti       4.56765488       0.62238396       9.58960668  F      -0.31331963      -0.35448586       0.25698832
Ti       2.35653173       5.01008407      10.34363604  F      -0.06109231       0.01961236      -0.37741969
Ti       0.02734007       3.33709546      10.53153797  F       0.00057956       0.28045556       0.06571851
Ti       2.31000098       0.01137612      11.16428069  F      -0.04144034       0.17651549      -0.47733215
Ti       0.02677194       6.10483333      11.60825954  F      -0.00152958      -0.01691509      -0.22278647
Ti       2.34176502       2.76638580      12.11856638  F       0.01814816      -0.08003921      -0.20317849
Ti       0.00285928       1.11928873      12.51210149  F      -0.03518319      -0.08766966       0.09778544
Ti       2.34690147       5.56991493      13.13831813  F       0.03679995       0.04188325      -0.04851470
Ti       0.00742760       3.87353690      13.46454018  F       0.00036528       0.00843302      -0.03273740
Ti       2.33564598       0.56517701      14.09966349  F      -0.00359214      -0.00297438      -0.00647284
Ti       0.01536278       6.64425867      14.43647503  F       0.02329640       0.01918851      -0.04184596
Ti       2.33187397       3.32768529      15.04750519  F       0.02669170      -0.01173596      -0.02963832
Ti       0.00968149       1.68045613      15.44842831  F      -0.00136672      -0.03991563      -0.02259657
Ti       2.35829200       6.10697801      15.97014554  F      -0.00949464       0.00711235      -0.01904832
Ti       4.63625886       4.42372448      16.38875886  F      -0.01735727       0.02887027      -0.00021530
Ti       2.34260790       1.11649910      17.03315823  F      -0.00288066       0.01999932      -0.02023739
Ti       0.02235730       7.21453318      17.22984370  F       0.00254643       0.00276672       0.01798126
Ti       2.22906114       3.81985001      17.97065671  F       0.00164797       0.01281571       0.02056819
Ti       0.12920292       2.17746969      18.46585916  F       0.00762820       0.00399501      -0.00104270
Ti       2.29315734       6.63403260      18.68573479  F      -0.00015550      -0.01791901       0.01503034
Ti       4.15994272       4.85860454      19.29360452  F      -0.00096148      -0.01481289       0.00599814
Ti       2.70007318       1.64567505      20.06749943  F      -0.00832942      -0.01167912      -0.00284346
Ti       0.38286347       7.65875347      20.07513372  F      -0.00447801       0.00328969      -0.00456676
Ti       1.24805965       4.81473966      20.74670458  F      -0.00189483      -0.01679111       0.00911833
Ti       3.08507412       6.64332620      21.40908146  F       0.00123599       0.00531733      -0.00908757
Ti       0.62262347       2.16013354      21.71999390  F       0.00405449      -0.00709071       0.00039499
Ti       3.20761781       3.84903628      22.01444747  F       0.01601929      -0.00919699      -0.00813851
Ti       0.71639746       7.17808920      22.90445741  F       0.00649578      -0.00503376      -0.00060503
Ti       3.07061010       1.11046913      23.11899725  F       0.00482093      -0.01310930       0.00569589
Ti       0.74515320       4.34789923      23.67108744  F       0.00215354       0.00315952      -0.00699037
Ti       3.05641151       6.00731265      24.10895065  F      -0.00075714      -0.01086664       0.01287535
Al       0.74600073       1.66018271      24.66990646  F      -0.00193216      -0.00716336      -0.01047203
Ti       3.07640316       3.24671593      25.04472526  F      -0.00084985      -0.03436042       0.00807416
Ti       0.74120423       6.63312344      25.61844592  F      -0.00861792      -0.02878966       0.02516350
Ti       3.08404031       0.56002512      25.94417544  F      -0.00005617       0.00870297      -0.02592878
Ti       0.74409610       3.83884129      26.60601874  F       0.00244848       0.02651538       0.04090561
Ti       3.07125274       5.54831274      26.92386771  F      -0.04711787       0.00738516       0.00695928
Ti       0.74991710       1.14771348      27.53883814  F       0.07933070       0.00623376       0.00603007
Ti       3.06204159       2.78102555      28.00818252  F       0.00296059      -0.05028208       0.00997479
Ti       0.72783456       6.11421241      28.44641514  F       0.01476346      -0.06375204       0.08964043
Ti       3.09612936       0.02025011      28.87914779  F       0.01384263       0.00815148       0.21138393
Ti       0.73054947       3.35279201      29.56762900  F      -0.03171106      -0.00352029       0.26233789
Ti       3.05006430       5.03310050      29.73394150  F       0.08202028       0.23268806       0.46045641
Ti       0.84286683       0.63356582      30.45275464  F      -0.20445120       0.14402172       0.09047981
Ti       2.94073660       2.27979258      30.97049054  F       0.36438975       0.19140681      -0.22943249
Ti       0.78655215       5.61936685      31.18498934  F      -0.08421984      -0.20486159       0.27892744
Ti       3.59032295       7.39686965      31.83854164  F      -1.25299784      -0.15511572      -0.16419118
Ti       0.37837431       2.80125235      32.56207490  F       0.33967954      -0.16968760      -1.25578899
Ti       2.70934952       4.57325359      32.55727269  F       0.70738659       0.08831354      -0.26558814
