64
Lattice="5.871999 0.0 0.0 0.0 6.890708 0.0 0.0 0.0 43.401158" Properties=species:S:1:pos:R:3:move_mask:L:1:forces:R:3 job_name=BondOrder-VacuumGB-T1m-V-V-36-d-1.42 top_level=BondOrder-VacuumGB solute=V energy=-485.95473757 stress_kbar_3x3="_JSON [[-18.82994648, 0.00053228, 0.00049643], [0.00053231, -26.77958378, -2.77830645], [0.00049639, -2.77830647, -19.4561644]]" pbc="T T T"
Ti       2.93447865       0.10040451       8.84953952  F       0.00638778      -0.27977520       0.20369232
Ti       2.93598776       2.93366381       8.84689205  F      -0.00074995       0.12885983       0.99752028
Ti       0.00158544       0.10042518       8.84949612  F      -0.00652832      -0.27988089       0.20392124
Ti       0.00003523       2.93365691       8.84689205  F       0.00071736       0.12878306       0.99753239
Ti       4.40401687       5.03022373      10.26749875  F       0.00008708       0.21154369      -0.27812127
Ti       1.46799975       5.02969315      10.26723834  F      -0.00000563       0.21353404      -0.27456648
Ti       4.40401687       1.32010806      10.88592185  F       0.00013817      -0.04724710      -0.69563895
Ti       1.46801149       1.32231308      10.88622566  F      -0.00004819      -0.05230373      -0.69156444
Ti       2.93587032       3.41635790      12.07255291  F       0.00004690       0.02360398       0.05983890
Ti       0.00016442       3.41635790      12.07255291  F      -0.00005576       0.02362912       0.05985921
Ti       2.93598188       6.23510537      12.48004638  F      -0.00208660       0.01918885      -0.03283024
Ti       0.00007046       6.23509848      12.48004638  F       0.00204979       0.01924567      -0.03278366
Ti       1.46801737       1.50849312      13.70834256  F       0.00000007       0.02692248       0.00974430
Ti       4.40401687       1.50678423      13.70777834  F       0.00006546       0.02383820       0.01048415
Ti       1.46802324       4.46083764      14.31561156  F      -0.00001257      -0.02063358       0.02928014
Ti       4.40401687       4.46070671      14.31009961  F       0.00000229      -0.01960227       0.02132926
Ti       2.93474876       6.62373441      15.47503009  F      -0.00417085       0.00239410       0.01098122
Ti       0.00128010       6.62373441      15.47503009  F       0.00418404       0.00234476       0.01093731
Ti       2.93493080       2.55836139      15.98325765  F      -0.00248075      -0.01644844      -0.02391515
Ti       0.00110394       2.55834761      15.98330106  F       0.00249592      -0.01635910      -0.02406757
Ti       4.40402274       4.72980953      17.15066200  F      -0.00005555       0.00681031       0.00515412
Ti       1.46801149       4.72835559      17.16055747  F       0.00003634       0.01660233       0.00606499
Ti       4.40401099       0.76255331      17.74452005  F       0.00002435       0.00560469      -0.00476148
Ti       1.46800562       0.76481346      17.75992746  F       0.00009052       0.00143820       0.00340873
Ti       5.86473534       2.93106601      18.94360724  F      -0.00122789       0.00843509      -0.00086101
Ti       2.94328078       2.93106601      18.94360724  F       0.00114885       0.00844894      -0.00101552
Ti       5.86994380       5.77114711      19.42006515  F      -0.00224699      -0.00340616      -0.00027139
Ti       2.93808406       5.77114711      19.42006515  F       0.00223553      -0.00345515      -0.00036408
Ti       1.46801737       0.99018785      20.60491677  F      -0.00000232       0.00038202       0.01588784
Ti       4.40398751       1.00538875      20.58052532  F       0.00002835      -0.00610448      -0.00691717
Ti       1.46799975       4.07749377      21.14274392  F       0.00000923      -0.00611202       0.00627635
Ti       4.40401099       4.06168649      21.20133548  F       0.00001422       0.00555877      -0.01685668
Ti       2.99128437       2.18150857      22.70331935  F      -0.00595221       0.01172014       0.00006545
Ti       5.81674349       2.18146723      22.70327595  F       0.00592608       0.01183824       0.00028748
Ti       2.94750275       6.17324059      22.54104242  F       0.00546029       0.00115294      -0.00621448
Ti       5.86047814       6.17324748      22.54108583  F      -0.00543086       0.00112476      -0.00640226
V        4.40405797       4.16629432      23.99202994  F       0.00007478       0.01215930       0.00252332
Ti       1.46794690       4.15154821      23.93908053  F       0.00000636      -0.00731338       0.00975246
Ti       4.40399338       0.80804576      24.60238042  F       0.00005358      -0.01041641       0.00193888
Ti       1.46804085       0.81144977      24.56705188  F      -0.00006722      -0.00499868      -0.00124114
Ti       2.95561785       5.63973442      25.73245978  F      -0.00693203       0.01619061      -0.02325793
Ti       5.85239827       5.63975509      25.73250318  F       0.00696522       0.01606501      -0.02360099
Ti       2.95245871       2.83292165      26.06925276  F      -0.00188214      -0.02309895      -0.00006320
Ti       5.85558089       2.83290787      26.06925276  F       0.00186046      -0.02298860      -0.00000337
Ti       4.40401099       0.69481076      27.36738140  F      -0.00000900      -0.00642926       0.04145800
Ti       1.46801737       0.70547069      27.35045495  F      -0.00001005      -0.00267162       0.00973354
Ti       4.40402861       4.61359085      27.96301889  F      -0.00002308      -0.03563450       0.02622679
Ti       1.46801149       4.61661587      27.94513761  F       0.00000949      -0.02982267       0.01291142
Ti       0.00365826       2.47973842      29.11393080  F      -0.00319744       0.01099277      -0.03892628
Ti       2.93238235       2.47974531      29.11393080  F       0.00321870       0.01103710      -0.03890964
Ti       0.00308867       6.55677740      29.62007510  F      -0.00298939       0.03711797       0.12275254
Ti       2.93293432       6.55677740      29.62007510  F       0.00304719       0.03710381       0.12283383
Ti       1.46802324       4.40920556      30.77745378  F      -0.00005866      -0.01241446      -0.06017550
Ti       4.40403448       4.40830288      30.78760965  F      -0.00000720      -0.00263675      -0.05628420
Ti       1.46800562       1.46659073      31.39309921  F       0.00002191      -0.02458852       0.01193459
Ti       4.40401099       1.46435814      31.39184058  F       0.00003282      -0.02229562       0.01026746
Ti       2.93582334       6.20711531      32.61141312  F      -0.00734515       0.12786200       0.55438133
Ti       0.00021139       6.20712220      32.61141312  F       0.00724013       0.12785505       0.55434305
Ti       2.93575875       3.39680207      33.02901906  F      -0.00623291       0.13560700       0.24318918
Ti       0.00029360       3.39680207      33.02901906  F       0.00624088       0.13560494       0.24322331
Ti       4.40401099       1.30281238      34.20887954  F       0.00007433      -0.27103807      -0.18336694
Ti       1.46804673       1.30544463      34.20835872  F      -0.00020023      -0.27872507      -0.17348101
Ti       4.40401099       5.02319521      34.83285799  F      -0.00001225      -0.03459733      -0.96033347
Ti       1.46801737       5.02310563      34.83359581  F       0.00002673      -0.02960176      -0.96293988
