64
Lattice="5.088765 0.0 0.0 0.0 9.739025 0.0 0.0 0.0 38.303587" Properties=species:S:1:pos:R:3:move_mask:L:1:forces:R:3 job_name=BondOrder-VacuumGB-T2-V-V-49-d-5.58 top_level=BondOrder-VacuumGB solute=V energy=-481.33968318 stress_kbar_3x3="_JSON [[-19.44516684, 0.53249774, 0.1197749], [0.53249775, -21.09537246, -0.04139563], [0.11977488, -0.04139559, -22.73339268]]" pbc="T T T"
Ti       2.55107931       9.25063237      29.95493718  F      -0.84056612       0.03175076      -0.94889900
Ti       0.01374984       4.37670810      29.93210824  F      -0.86270173       0.01910542      -0.96504580
Ti       1.27586025       1.88101477       8.26346265  F      -0.86679065       0.02926092       1.05636337
Ti       3.82292453       6.74054477       8.26097291  F      -0.86173981       0.04514023       1.05035058
Ti       2.71078512       4.08272589       9.02206519  F       0.78566493      -0.58206589       0.61336618
Ti       0.15926817       8.94620993       9.02432510  F       0.79789610      -0.57210112       0.59690764
Ti       1.04557328       6.22675276       9.76412058  F       0.25121796       0.12116199      -0.11727376
Ti       3.59289708       1.35663644       9.76320129  F       0.24863458       0.12985142      -0.12784228
Ti       0.22939644       3.51273971      10.40800387  F      -0.12966586       0.27907108      -0.39472872
Ti       2.77453207       8.37592184      10.40869334  F      -0.13933047       0.29427183      -0.40200581
Ti       1.10704047       0.87468131      11.14259007  F      -0.11454516       0.14235087      -0.45550909
Ti       3.65038486       5.74399903      11.14894846  F      -0.10783035       0.13972552      -0.47069988
Ti       2.75981028       3.10920321      11.83500401  F       0.11314123      -0.00668362      -0.17008880
Ti       0.21433369       7.98025448      11.83734053  F       0.11708271      -0.01001207      -0.17287112
Ti       3.61219877       0.43875282      12.50604455  F      -0.05716183      -0.01464344      -0.13875110
Ti       1.06848799       5.30819714      12.50727026  F      -0.05265131      -0.01881316      -0.13416325
Ti       2.75516932       7.52294882      13.22737770  F      -0.01522060      -0.00005368      -0.01590443
Ti       0.21189617       2.65342658      13.22741600  F      -0.01005814      -0.00423149      -0.01845780
Ti       3.61254481       4.86888920      13.94882576  F       0.03304487      -0.02223702       0.00777093
Ti       1.06881876       9.73854779      13.94756174  F       0.03958477      -0.01132990       0.00025380
Ti       0.21424718       7.06653915      14.61749148  F       0.01148696       0.02415796      -0.03826546
Ti       2.75969832       2.19855568      14.61971309  F       0.00836350       0.02404934      -0.03604801
Ti       1.10711171       4.43336000      15.31193551  F      -0.01323646      -0.00617077      -0.00931143
Ti       3.65048155       9.30307702      15.30569203  F      -0.01253081       0.00039949      -0.00436249
Ti       0.22947786       1.79528213      16.04701965  F       0.00411051       0.01288273      -0.00123432
Ti       2.77466438       6.67104708      16.04602376  F      -0.00005153       0.01792925       0.00248728
Ti       1.04534428       8.81992399      16.69074973  F      -0.01739096      -0.00214604       0.00773424
Ti       3.59264265       3.95077184      16.69155411  F      -0.01536289      -0.00105741       0.00101134
Ti       2.71074949       1.22464344      17.43292003  F       0.01056462       0.00601156       0.01213276
Ti       0.15923763       6.10027205      17.43046860  F       0.00934799       0.00426395       0.01278685
Ti       3.82291435       8.30570347      18.19420383  F       0.00253029      -0.02494266      -0.00288266
Ti       1.27586025       3.42643247      18.19144597  F       0.00618214      -0.02529070       0.00469019
Ti       0.01352594       0.93071966      18.82644283  F      -0.00048725      -0.01070328      -0.00401302
Ti       2.55092156       5.79566456      18.80353729  F      -0.00008849      -0.00779407      -0.00088175
Ti       3.82960608       3.44188830      19.44864630  F      -0.00869331       0.00160043      -0.01016728
Ti       1.27982949       8.30435949      19.43991308  F      -0.00460241      -0.00211588      -0.00340172
Ti       2.38146569       1.26636542      20.23153331  F      -0.01030535      -0.00129726      -0.00247834
Ti       4.91415421       6.10765423      20.22601760  F      -0.01061449       0.00728808      -0.00050008
Ti       1.50304816       3.95472588      20.92976940  F       0.00173375       0.02458228      -0.00522453
Ti       4.03221526       8.84768995      20.93122494  F       0.00096232       0.02473695      -0.00931789
Ti       4.87781025       1.83244625      21.62340906  F       0.02310476       0.00097818      -0.00596862
Ti       2.32549945       6.66550558      21.57694681  F       0.01283731       0.01445860      -0.00047732
Ti       1.44733128       9.30528778      22.29146192  F      -0.01275235       0.01218479       0.01024413
Ti       3.97484452       4.42279316      22.36492820  F      -0.00234281       0.01337987      -0.00479761
Ti       4.86576005       7.09302930      22.99414122  F      -0.01767181      -0.00756643      -0.01013273
Ti       2.32455294       2.20775906      23.03972249  F      -0.01731206       0.00045970       0.01078005
Ti       1.40232115       4.86218875      23.66709694  F       0.00226241       0.02480834       0.01365858
Ti       4.01327996       0.03824515      23.69230070  F       0.00915708       0.01725684       0.02313302
Ti       2.33897450       7.52278325      24.37904571  F       0.00801481      -0.03174266      -0.01960501
V        4.92976145       2.65395249      24.37912232  F       0.00638592      -0.01193476      -0.02869649
Ti       4.01345807       5.26979617      25.06617376  F       0.00020754       0.01755015       0.03731755
Ti       1.40258576       0.44546300      25.09122431  F      -0.01320918       0.03398870       0.05183648
Ti       4.86554123       7.95417337      25.76418003  F      -0.02765994      -0.05492388       0.06151595
Ti       2.32432395       3.10022383      25.71879028  F       0.00621199      -0.10100485       0.04381975
Ti       1.44728548       5.74207071      26.46720406  F       0.03070479       0.02249069       0.21394449
Ti       3.97475801       0.88529685      26.39354627  F       0.00395298       0.00252275       0.17573805
Ti       2.32566229       8.38163865      27.18148935  F      -0.03971533       0.21004330       0.48245412
Ti       4.87785096       3.47571194      27.13506541  F      -0.01326524       0.26923815       0.42213122
Ti       1.50254946       1.35279927      27.82847524  F      -0.10610463       0.23191961       0.68690092
Ti       4.03190993       6.19911341      27.82728783  F      -0.11606556       0.24976600       0.67331480
Ti       4.91428651       8.93877905      28.53211213  F       0.13330722      -0.04991086      -0.11405637
Ti       2.38151658       4.04086756      28.52667303  F       0.17486750      -0.05251625      -0.11122602
Ti       3.82973330       1.86544207      29.30948343  F       0.82109717      -0.43532297      -0.65451645
Ti       1.28003304       6.74184006      29.31829326  F       0.84406416      -0.43202561      -0.66283783
