64
Lattice="5.871999 0.0 0.0 0.0 6.890708 0.0 0.0 0.0 43.401158" Properties=species:S:1:pos:R:3:move_mask:L:1:forces:R:3 job_name=BondOrder-VacuumGB-T1m-V-V-46-d-5.43 top_level=BondOrder-VacuumGB solute=V energy=-484.81360763 stress_kbar_3x3="_JSON [[-18.75522432, 0.00093355, -0.00037617], [0.00093358, -22.08508281, -1.24060052], [-0.00037619, -1.24060051, -23.40900758]]" pbc="T T T"
Ti       2.93605822       6.86365508       8.19570107  F       0.00615683      -0.10370099       1.17196105
Ti       2.93457260       2.78933793      35.18141269  F       0.00683966       0.09936443      -1.24107150
Ti       0.00004698       6.86365508       8.19565767  F      -0.00618684      -0.10390999       1.17236345
Ti       0.00162067       2.78933104      35.18132588  F      -0.00679951       0.09954754      -1.24102520
Ti       4.40403448       4.77021665       9.38476260  F       0.00111315       0.31442315      -0.18974026
Ti       1.46807021       4.77198067       9.36683792  F      -0.00115889       0.30113887      -0.17575158
Ti       4.40408146       1.59762443       9.99745675  F       0.00055395      -0.45981768      -0.35113806
Ti       1.46800562       1.59871316       9.99572070  F      -0.00047024      -0.46391042      -0.35300968
Ti       2.92568240       3.56242024      11.41615380  F      -0.00176132       0.11111111      -0.06296719
Ti       0.01037582       3.56242713      11.41619720  F       0.00175240       0.11110235      -0.06327431
Ti       2.93465481       6.39592760      11.41502537  F       0.00130065       0.31982698      -0.21640811
Ti       0.00145626       6.39593449      11.41498197  F      -0.00134961       0.31988929      -0.21659431
Ti       1.46802324       1.59670797      12.83207318  F      -0.00007846      -0.11766093      -0.01285525
Ti       4.40401687       1.59829283      12.83163917  F       0.00013284      -0.12021695      -0.00834609
Ti       1.46798801       4.77317276      13.45878590  F       0.00007196      -0.09530997      -0.07561713
Ti       4.40405210       4.77014774      13.45171151  F      -0.00002334      -0.08856044      -0.07858739
Ti       2.93873585       6.86572918      14.63643292  F      -0.00215732      -0.01568374      -0.01352961
Ti       5.86929788       6.86575675      14.63643292  F       0.00214342      -0.01597631      -0.01362234
Ti       2.93624025       2.78611997      15.04987235  F       0.00028416       0.03189823       0.06096804
Ti       5.87178174       2.78612686      15.04987235  F      -0.00031040       0.03161761       0.06088335
Ti       4.40400512       4.94504080      16.27157155  F      -0.00004652       0.02148716      -0.01584244
Ti       1.46800562       4.94471694      16.27382841  F       0.00010567       0.02326363      -0.01698821
Ti       4.40401687       0.99451521      16.88161822  F      -0.00015011      -0.00180052      -0.04323816
Ti       1.46801737       0.99396396      16.88027279  F       0.00009898       0.00508014      -0.03862641
Ti       0.00216677       3.15639905      18.03652304  F      -0.00077430       0.01966642       0.01842449
Ti       2.93381512       3.15639905      18.03652304  F       0.00090938       0.01962986       0.01842180
Ti       0.00213741       5.96873816      18.55299682  F      -0.00222802       0.00802686      -0.00399500
Ti       2.93389145       5.96873816      18.55299682  F       0.00214154       0.00795112      -0.00411357
Ti       1.46798213       1.25260668      19.71007169  F       0.00006795       0.00658165       0.00791779
Ti       4.40399925       1.24707344      19.71124352  F      -0.00004481       0.00537594       0.01283517
Ti       1.46799388       4.17187580      20.32975342  F       0.00006712       0.01252761      -0.01321010
Ti       4.40401687       4.17482502      20.30909447  F      -0.00018236       0.00594051      -0.01571742
Ti       2.92698598       2.27998368      21.97891063  F       0.00253026       0.01977127       0.00824574
Ti       0.00896067       2.27998368      21.97895403  F      -0.00236439       0.01953616       0.00815321
Ti       2.93315158       6.34294495      21.50831187  F       0.00133900      -0.00027502       0.00773911
Ti       0.00284205       6.34291050      21.50835527  F      -0.00140044      -0.00006373       0.00812693
Ti       4.40401099       4.40146041      23.13229640  F       0.00026685       0.00595321       0.00810560
Ti       1.46787057       4.41453208      23.16714753  F      -0.00008307       0.00049587       0.00481034
Ti       4.40384658       0.59778959      23.73535549  F      -0.00000282      -0.00050074       0.00472824
Ti       1.46818178       0.60776734      23.75423499  F      -0.00015181      -0.00923307       0.00246338
Ti       2.98029199       5.55646710      25.28100093  F      -0.01348246      -0.00830465       0.00317181
Ti       5.82778285       5.55685987      25.28061032  F       0.01355650      -0.00826922       0.00315985
Ti       2.94981044       2.72864457      25.12241310  F      -0.00029586       0.01280224      -0.00813970
Ti       5.85810585       2.72866524      25.12228290  F       0.00025882       0.01271407      -0.00848943
Ti       4.40371739       0.68793383      26.52496492  F      -0.00055635       0.00629924       0.02272190
Ti       1.46824050       0.69918636      26.54979038  F       0.00061033      -0.00543681       0.02269674
V        4.40526760       4.25338598      27.13505500  F       0.00074775       0.00247323      -0.01989002
Ti       1.46681948       4.28402896      27.17771834  F      -0.00045502      -0.01104738      -0.02631175
Ti       5.83431251       2.26002819      28.31921219  F       0.00774250       0.00431581      -0.01586406
Ti       2.97360378       2.26060012      28.31912539  F      -0.00763678       0.00482991      -0.01603679
Ti       5.86178172       6.27779330      28.65908666  F      -0.00050201       0.05037036      -0.02258375
Ti       2.94615806       6.27757280      28.65895646  F       0.00041619       0.05065470      -0.02260034
Ti       1.46789993       4.17670618      29.96007977  F      -0.00041479      -0.08832096       0.05415782
Ti       4.40412256       4.15227173      29.90118440  F       0.00017621      -0.08568387       0.06302308
Ti       1.46810545       1.18984611      30.50832320  F       0.00010535       0.10475973       0.09636467
Ti       4.40384071       1.20381358      30.53158622  F      -0.00029099       0.12069229       0.10142432
Ti       2.94178342       5.95776815      31.68180371  F       0.00239046       0.00236405       0.23855888
Ti       5.86629142       5.95784395      31.68189051  F      -0.00244823       0.00199596       0.23813743
Ti       2.94494255       3.13784926      32.19072569  F      -0.00210822      -0.28405704       0.38802229
Ti       5.86309118       3.13782859      32.19068229  F       0.00213798      -0.28389929       0.38720475
Ti       4.40404623       0.98688720      33.36468361  F      -0.00045238       0.40313676       0.09723786
Ti       1.46805260       0.99113188      33.34602112  F       0.00058690       0.37899823       0.08115026
Ti       4.40407559       4.94025176      33.96583305  F      -0.00042235      -0.36190563       0.10618929
Ti       1.46811132       4.93810875      33.94573832  F       0.00018524      -0.34406815       0.12581654
