100
Lattice="4.4265 -2.555641 0.0 3.767997 6.526363 -0.031456 0.0 0.0 61.781652" Properties=species:S:1:pos:R:3:move_mask:L:1:forces:R:3 job_name=BondOrder-VacuumGB-CSL13-Al-Al-52-d-1.39 top_level=BondOrder-VacuumGB solute=Al energy=-757.15970252 stress_kbar_3x3="_JSON [[-34.54101528, -2.49922624, 0.26028069], [-2.49922627, -37.33908517, -0.18064226], [0.26028071, -0.18064228, -24.23905795]]" pbc="T T T"
Ti       2.48286624      -0.88881937       8.02044040  F       0.11190015      -0.02286477       1.76184527
Ti       5.77590335       1.56121007       8.00464933  F      -0.07581997       0.08781726       1.76175772
Ti       4.99602216      -0.79726303       9.38654059  F       0.41736882      -0.00384101      -0.12877303
Ti       4.59876345       3.78438654       9.37074581  F      -0.21645018       0.35448527      -0.12920696
Ti       7.10835141       3.86923141      10.62987188  F      -0.14810771      -0.04825171      -0.98677728
Ti       3.81488127       1.41961732      10.64609483  F       0.03194324      -0.15127392      -0.98883493
Ti       1.66902581      -0.43454204      10.87907203  F       0.30964268      -0.26372243      -0.12118401
Ti       2.14922411       3.63961990      10.86321867  F      -0.38514559       0.13334440      -0.12194689
Ti       4.73413293       3.65945867      12.16678176  F       0.04363691      -0.12758900      -0.34136954
Ti       4.81968559      -0.74133975      12.18275868  F      -0.12937596      -0.02509320      -0.34349373
Ti       3.44792836       5.87535389      13.25431159  F      -0.08239765       0.03339585       0.04682782
Ti       2.95527543       1.80871330      13.27041088  F       0.07470788      -0.05361795       0.04371495
Ti       2.41099016      -0.95134322      13.75755172  F       0.03962655      -0.04042094       0.00976267
Ti       5.75621121       1.46773984      13.74170183  F      -0.05539708       0.01733407       0.00878322
Ti       4.28115651       3.76356886      14.95419756  F      -0.00247091       0.02294332      -0.02411031
Ti       5.13723775      -1.08108503      14.96986192  F       0.01696136       0.00789391      -0.02491815
Ti       6.92570935       3.59698619      15.85388737  F      -0.00212886      -0.00408834      -0.00784889
Ti       3.66994479       1.12559406      15.87004856  F      -0.00389750      -0.00076065      -0.01066330
Ti       6.37667425       0.88687934      16.60868103  F      -0.00160185       0.00149086      -0.00107484
Ti       1.59718526      -0.70421574      16.62490193  F       0.00151906      -0.00728530       0.00054253
Ti       4.78646929       3.18202977      17.68729157  F      -0.00291511       0.00941960       0.00523740
Ti       4.38013475      -0.93288914      17.70134643  F       0.00682888      -0.00932380       0.01010000
Ti       3.17682905       5.40982375      18.48236126  F      -0.00300283       0.00243895       0.01117761
Ti       2.68822966       1.34185227      18.49882758  F      -0.00179316      -0.00112941       0.00676777
Ti       5.89582923       5.19817916      19.43068074  F       0.00062389      -0.01017664      -0.00131486
Ti       5.57077496       1.03351368      19.44548718  F      -0.00426301      -0.00087055      -0.00113643
Ti       0.58676039       0.91410395      20.37878256  F      -0.00212370      -0.00119311       0.00284599
Ti       3.85725502       3.37700907      20.36632821  F       0.00159297       0.00681569       0.00268142
Ti       3.30726128       0.64830299      21.18705034  F       0.00225863       0.00044753       0.00029673
Ti       6.69002158       3.04339808      21.17114703  F       0.00484018       0.00520592      -0.00306176
Ti       5.09046010       5.35557612      22.27103022  F      -0.00414077       0.00160374      -0.00013140
Ti       6.10849436       0.41425115      22.28417298  F      -0.00058057       0.00008504       0.00191474
Ti       4.54161412       2.63777210      22.99038864  F      -0.00293495       0.00449789      -0.00581443
Ti       4.03027905      -1.42068419      22.99951600  F       0.00109000      -0.00227474      -0.00182451
Ti       7.16980334       2.49056574      23.90987447  F       0.00552981       0.00604953      -0.01113252
Ti       2.59484332       0.78895638      23.92996024  F      -0.00176321      -0.00259399       0.00229552
Ti       5.72614591       4.79096188      25.15120198  F      -0.00046145       0.01237497      -0.00355317
Ti       5.29731124       0.67564133      25.16141300  F      -0.00071725      -0.00907576      -0.00100294
Ti       3.60989406       2.93598328      25.59325124  F       0.00214717       0.00527036      -0.00208797
Ti       0.31946271       0.47124874      25.59525094  F       0.00650587       0.00437300       0.01119646
Ti       2.87233553       0.50205642      26.71806813  F      -0.01283207      -0.01015642       0.00857722
Ti       6.75748370       2.59414072      26.69084383  F       0.00692166       0.01543023       0.01520216
Ti       4.90445444       5.21284150      28.03937517  F       0.01728106       0.01885313       0.00524351
Ti       1.63632061       2.72451286      28.04598546  F       0.00364459      -0.00242544       0.00069683
Ti       4.38119869       2.39081698      28.23836116  F       0.00557555       0.01273819      -0.00754393
Ti       3.88423152      -1.64966383      28.22774699  F      -0.01303176      -0.00458333       0.00423225
Ti       6.87265284       2.49213567      29.47825144  F       0.01597245       0.03955870      -0.00414658
Ti       2.74072718       0.54340730      29.53988494  F      -0.01432021      -0.03494675      -0.02639552
Ti       3.56462991       2.87962332      30.88002006  F       0.01582754       0.03096146       0.00182892
Ti       0.26492104       0.39274742      30.86241082  F      -0.00807180      -0.00548138      -0.00113412
Ti       5.73265193       4.71638153      30.86082402  F       0.00168642      -0.00025094      -0.00181050
Ti       5.24402819       0.65757842      30.88559778  F      -0.00927685      -0.01148331       0.00053556
Al       2.68755841       0.59331792      32.27142944  F      -0.00518021      -0.01795195       0.02909706
Ti       6.88671123       2.51859137      32.25780655  F       0.02058297       0.03436801      -0.01573776
Ti       3.92288092      -1.64052971      33.54777493  F      -0.01909448       0.00546324       0.00511015
Ti       4.41296486       2.45423034      33.51866699  F      -0.00362650       0.00230302       0.01337767
Ti       1.66768165       2.79924624      33.77373572  F       0.00109633      -0.00998256       0.00741960
Ti       4.90239764       5.24530333      33.74109078  F       0.03260428       0.01853021       0.00129235
Ti       2.90992292       0.53946677      35.01667486  F      -0.01334207      -0.01719618      -0.01641646
Ti       6.78000487       2.65508616      35.05593577  F       0.00532852       0.02360958      -0.01085873
Ti       0.39101222       0.52920993      36.15936924  F       0.01189949       0.00519789      -0.00943641
Ti       3.62250979       2.97514117      36.12246853  F       0.00609980       0.00209169      -0.00039817
Ti       5.31589631       0.73349026      36.59836986  F      -0.00171065      -0.01157195      -0.00612265
Ti       5.76572215       4.85329461      36.56795800  F      -0.00058419       0.02141267      -0.00051001
Ti       7.22898224       2.51961749      37.82985529  F       0.01080709       0.01184174       0.01714449
Ti       2.64015126       0.84208008      37.84277811  F      -0.00254153      -0.00678220      -0.00726151
Ti       4.59243356       2.71280108      38.71739581  F       0.00054663       0.00529471       0.00981611
Ti       4.06917463      -1.37955639      38.75737609  F       0.00273038       0.00133547       0.00607434
Ti       6.12687900       0.46883949      39.46368482  F      -0.00212025       0.00107565      -0.00077001
Ti       5.14583715       5.40875144      39.44818403  F      -0.00456348       0.00578758      -0.00126521
Ti       3.37238804       0.69710238      40.56758046  F       0.00409249      -0.00417202      -0.00136056
Ti       6.72570637       3.10500151      40.54786185  F       0.00595163       0.00702605       0.00221948
Ti       3.90800761       3.43938939      41.34395672  F       0.00517253       0.00552722      -0.00324473
Ti       0.63218261       0.99121350      41.36989914  F      -0.00095143       0.00102816      -0.00069852
Ti       5.93678053       5.26108419      42.30564235  F       0.00407005      -0.01020279      -0.00224174
Ti       5.62700304       1.10139103      42.32632997  F      -0.00288866      -0.00587435      -0.00108909
Ti       3.23771132       5.47879060      43.21404512  F      -0.00097716       0.00220222      -0.00032319
Ti       2.73259534       1.41510777      43.23232209  F      -0.00546215      -0.00095148       0.00347383
Ti       4.80529513       3.26609749      44.03367210  F       0.00782096       0.01203482       0.01147815
Ti       4.45120598      -0.87710572      44.05148885  F       0.00560200      -0.00027513      -0.00004332
Ti       6.42218435       0.93932071      45.18166915  F      -0.00303054       0.00534148      -0.01090026
Ti       1.63355956      -0.64287987      45.19151345  F       0.00536553      -0.00608968      -0.01054965
Ti       6.97863350       3.66714525      45.81465900  F      -0.01073845      -0.01015407      -0.00425308
Ti       3.71488529       1.20314706      45.83223111  F      -0.00302742      -0.01103288      -0.00374359
Ti       4.37230630       3.77705121      46.78621340  F       0.02169355       0.00891540      -0.01312726
Ti       5.11012185      -1.00109712      46.80188418  F      -0.00732137       0.01570028      -0.01070725
Ti       5.75913400       1.49803155      48.06407408  F       0.04846755      -0.02534493      -0.00290919
Ti       2.44138135      -0.93693651      48.07893557  F      -0.04903993       0.02403647      -0.00412021
Ti       3.46598405       5.90997004      48.41390158  F      -0.01081964      -0.07842517       0.00769799
Ti       2.98096635       1.83886904      48.42919790  F      -0.05729383      -0.04707130       0.01159764
Ti       4.69557531       3.69591259      49.59127506  F       0.01443732       0.02660259       0.37989279
Ti       4.87406578      -0.75800398      49.60607618  F       0.01781529       0.02520293       0.38232056
Ti       2.15200476       3.64069466      50.93231720  F       0.16376174      -0.03012801       0.47999632
Ti       1.67111815      -0.43233894      50.94798257  F      -0.10306284       0.12784143       0.47691243
Ti       7.11402069       3.87094440      51.05513330  F       0.48629609      -0.13555268       0.17007712
Ti       3.81576473       1.42392806      51.07080081  F      -0.35929521       0.35471358       0.17221897
Ti       4.62267507       3.77111197      52.37590156  F       0.14273206      -0.22963372       0.15669652
Ti       4.97351030      -0.78428320      52.39151298  F      -0.26714337       0.01323212       0.15876737
Ti       3.49009103       5.97741386      53.73825915  F       0.05014546      -0.08809460      -1.39221603
Ti       3.02385892       1.89541478      53.75380278  F      -0.10191570      -0.00128266      -1.39414812
