64
Lattice="5.872 0.0 0.0 0.0 6.890708 0.0 0.0 0.0 43.394398" Properties=species:S:1:pos:R:3:move_mask:L:1:forces:R:3 job_name=BondOrder-VacuumGB-T1g-V-V-35-d-1.29 top_level=BondOrder-VacuumGB solute=V energy=-486.05672753 stress_kbar_3x3="_JSON [[-18.64708205, 0.00178303, 0.00139886], [0.00178307, -27.64721738, -0.85473059], [0.00139885, -0.8547306, -19.88470921]]" pbc="T T T"
Ti       4.40526248       5.21455017      34.65224937  F      -0.00673488      -0.28041250      -0.45930460
Ti       1.46672578       5.21412984      34.65207579  F       0.00684659      -0.27901952      -0.45959427
Ti       5.87157134       3.19090083       8.54635311  F       0.00154685       0.16764532       0.94988808
Ti       2.93640517       3.19061142       8.54531164  F      -0.00154877       0.16375114       0.96110088
Ti       5.87187082       6.63421518       9.16975703  F       0.00050945      -0.20860074       0.12172086
Ti       2.93611744       6.63289216       9.16758731  F      -0.00050846      -0.20528252       0.13760060
Ti       4.40491603       1.76831416      10.45431800  F      -0.00494101       0.03782802      -0.50136610
Ti       1.46700763       1.76815567      10.45431800  F       0.00495393       0.03884229      -0.50338732
Ti       1.46720141       4.59561989      10.67146357  F       0.00169052       0.11800457      -0.34606875
Ti       4.40474574       4.59578526      10.67137678  F      -0.00172890       0.11768227      -0.34459418
Ti       0.00002936       6.72865922      11.98826657  F      -0.00036311      -0.10183537       0.02634963
Ti       2.93588256       6.72486244      11.98748548  F       0.00036762      -0.09703807       0.02398079
Ti       2.93580622       2.87600236      12.59409577  F       0.00053398      -0.06435987       0.11373437
Ti       0.00005872       2.87498943      12.60294822  F      -0.00051206      -0.06371532       0.11484674
Ti       4.40666589       5.00565836      13.75845425  F      -0.00296514       0.06331690      -0.08057862
Ti       1.46522842       5.00565147      13.75845425  F       0.00304596       0.06330901      -0.08103863
Ti       4.40621374       0.93488303      14.23883024  F       0.00034526       0.01821311       0.04565753
Ti       1.46565120       0.93468320      14.23891703  F      -0.00015112       0.01916196       0.04542307
Ti       2.93591192       3.09713207      15.42154456  F       0.00019527      -0.03006013      -0.01599350
Ti       0.00003523       3.09813811      15.43564773  F      -0.00017900      -0.03246366      -0.02423060
Ti       2.93585320       6.02012217      16.01656854  F       0.00074756       0.00459948      -0.04176718
Ti       0.00005872       6.02329879      16.03926381  F      -0.00059584       0.00661710      -0.04557301
Ti       4.39623722       1.29312404      17.20570523  F       0.00337875       0.00365261       0.00285003
Ti       1.47578040       1.29315161      17.20570523  F      -0.00340783       0.00327540       0.00279184
Ti       4.40047093       4.12502587      17.70326540  F       0.00240417       0.00611626       0.03256782
Ti       1.47149384       4.12494319      17.70343897  F      -0.00232400       0.00638785       0.03186350
Ti       2.93601174       6.25938133      18.85417162  F      -0.00042011      -0.00995312       0.01086093
Ti       0.00006459       6.24268515      18.88372321  F       0.00040081      -0.00537199       0.00879229
Ti       2.93609395       2.37076876      19.47905095  F      -0.00000593      -0.00100308      -0.00224426
Ti       5.87199413       2.39314978      19.42610979  F      -0.00032197      -0.00340866      -0.01351346
Ti       1.48162891       4.49193540      20.78635059  F      -0.00147152      -0.00656421      -0.00306104
Ti       4.39052376       4.49251422      20.78635059  F       0.00177332      -0.00802995      -0.00353321
Ti       4.35262587       0.48977774      21.02311042  F       0.00990459      -0.00192355      -0.00923455
Ti       1.51950331       0.48981909      21.02319721  F      -0.01018505      -0.00025458      -0.00954987
Ti       5.87118966       2.47982110      22.21775820  F      -0.00018816       0.00047862       0.01214900
V        2.93719789       2.47997270      22.26414681  F       0.00020099       0.00104518       0.00978031
Ti       0.00021726       5.93072901      22.84827880  F       0.00031036       0.00160821      -0.00510926
Ti       2.93595302       5.92493393      22.88286414  F      -0.00039643      -0.00489876      -0.00612219
Ti       4.37344798       3.87996473      24.05486004  F       0.00871463      -0.00220045       0.00187995
Ti       1.49882213       3.87955818      24.05451288  F      -0.00858320      -0.00210669       0.00240713
Ti       4.38810450       1.06436632      24.32017339  F       0.00034918      -0.00491309       0.00099082
Ti       1.48397184       1.06421472      24.32012999  F      -0.00053269      -0.00462794       0.00032054
Ti       0.00018790       5.82807814      25.63801786  F      -0.00014869      -0.00742450      -0.01482020
Ti       2.93588256       5.81406933      25.66097350  F      -0.00003750       0.00198981      -0.01689702
Ti       2.93608221       2.80282993      26.26133499  F      -0.00012736       0.00975311      -0.01616490
Ti       5.87195890       2.80953459      26.22896277  F       0.00010010       0.00974162      -0.00514751
Ti       4.40990723       0.67015581      27.40499435  F      -0.00122394      -0.01313145       0.00746118
Ti       1.46207515       0.67018337      27.40499435  F       0.00138135      -0.01343236       0.00777515
Ti       1.46504638       4.73837468      27.90455066  F       0.00073917       0.00204585      -0.01758053
Ti       4.40698298       4.73837468      27.90450727  F      -0.00076482       0.00175755      -0.01805891
Ti       2.93602936       2.57620144      29.08917433  F       0.00006693      -0.03257319      -0.03025255
Ti       5.87196477       2.57561573      29.06786768  F      -0.00002836      -0.03362941      -0.02751742
Ti       2.93597064       6.53899937      29.68406814  F       0.00001346       0.03365386       0.00991311
Ti       0.00000000       6.54542151      29.68398135  F       0.00002154       0.03033061       0.01547410
Ti       4.40663066       4.37757721      30.86873520  F      -0.00240478       0.02415989       0.02150452
Ti       1.46533411       4.37752209      30.86895217  F       0.00245822       0.02434533       0.02131227
Ti       4.40700646       1.56299862      31.35054320  F       0.00325530       0.00810603      -0.02946797
Ti       1.46498766       1.56295039      31.35023944  F      -0.00316642       0.00835924      -0.02797740
Ti       2.93605872       6.32230039      32.51038867  F      -0.00038295      -0.08501928       0.73962156
Ti       5.87195890       6.32199031      32.50895666  F       0.00019744      -0.07911386       0.74165074
Ti       5.87174750       3.28223716      33.12342133  F       0.00088352       0.28284979       0.23492906
Ti       2.93626424       3.27991499      33.12016675  F      -0.00099301       0.28427079       0.23555904
Ti       1.46748326       1.15063109      34.43883572  F       0.00478755       0.05931938      -0.76678489
Ti       4.40454022       1.15076891      34.43887911  F      -0.00478137       0.06014968      -0.76622353
