52
Lattice="5.088765 0.0 0.0 0.0 5.495746 0.0 0.0 0.0 48.722931" Properties=species:S:1:pos:R:3:move_mask:L:1:forces:R:3 job_name=BondOrder-VacuumGB-C1-Al-Al-31-d-3.83 top_level=BondOrder-VacuumGB solute=Al energy=-392.18680536 stress_kbar_3x3="_JSON [[-23.30768737, -0.14314019, 0.22705765], [-0.1431402, -16.05539922, 0.01735635], [0.22705763, 0.0173564, -30.34930582]]" pbc="T T T"
Ti       2.62727339       0.79293173      40.09273568  F       0.17383641       0.01524433      -0.86609742
Ti       0.03070561       1.59793212       8.74532761  F       0.34045310       0.02418618       0.61415725
Ti       0.81790702       4.34680534       8.74269657  F      -0.28605719       0.00988890       0.63752110
Ti       2.57214680       2.35798829       9.95497182  F      -0.72717119       0.15493899      -0.45207664
Ti       3.36818231       5.10635591       9.95677456  F       0.65932334       0.01183139      -0.49623297
Ti       0.81558654       0.38757650      11.20257119  F      -0.28464929      -0.15381392      -0.90060909
Ti       0.03841509       3.13587816      11.20130439  F       0.33059792      -0.07065822      -0.90005737
Ti       3.37500634       1.18226686      12.44320318  F       0.10670915       0.03232484       0.08002041
Ti       2.56756182       3.92999148      12.44549316  F      -0.11653027       0.00603312       0.07727327
Ti       0.01457422       4.70231416      13.68675855  F       0.09124966      -0.02903109       0.33078418
Ti       0.83719853       1.95515561      13.68359156  F      -0.07036787       0.03202644       0.34540126
Ti       3.37661948       2.73773884      14.93328601  F       0.02834989       0.02573594       0.47215101
Ti       2.56671709       5.48615592      14.92739054  F      -0.04489097      -0.01130006       0.48166957
Ti       0.83799238       3.53928241      16.18112900  F      -0.00889403      -0.00513335       0.07806518
Ti       0.02564738       0.78927156      16.17859541  F       0.02117920      -0.00172576       0.07339304
Ti       2.56083448       1.56684268      17.42809497  F       0.01108841       0.00552791      -0.18535977
Ti       3.38516352       4.32081046      17.42176099  F      -0.01184279      -0.00288404      -0.19359398
Ti       0.82425271       5.09132504      18.67476861  F       0.00529715      -0.01075242      -0.22282427
Ti       0.02353554       2.34340808      18.65888493  F      -0.00728484      -0.00633787      -0.22656641
Ti       3.36833497       0.39225338      19.92256287  F      -0.00339264      -0.00734688      -0.07108515
Ti       2.59083784       3.14007691      19.90263519  F      -0.00131894      -0.01405822      -0.08511044
Ti       0.03495473       3.91050356      21.15958937  F       0.01018611       0.00025233       0.07833382
Ti       0.83089355       1.16749979      21.14424164  F       0.00051718      -0.00875566       0.06123346
Ti       2.57185674       4.66539374      22.35198566  F      -0.01316905       0.00440086       0.09005942
Ti       3.33265255       1.92101603      22.37810115  F      -0.00081050      -0.00728504       0.10733112
Ti       0.76796079       2.75248393      23.79111487  F      -0.00537724       0.01776299       0.03053267
Ti       0.09115505       0.00014839      23.70779866  F      -0.00419502      -0.02413236       0.01368720
Ti       3.37434481       1.92994112      25.14999742  F       0.00904014       0.03953015      -0.07135275
Ti       2.55747589       4.67875390      25.12354086  F       0.01217972      -0.02414752      -0.03810077
Ti       5.05068577       3.96083360      26.30166134  F      -0.03212857      -0.01884263      -0.09474755
Ti       0.78555265       1.19289564      26.36188288  F      -0.00571508       0.03696891      -0.08655711
Al       3.33350747       0.38610913      27.56621629  F      -0.02066194      -0.00621585       0.03401957
Ti       2.58297060       3.14024179      27.56616756  F       0.03978262      -0.01398433       0.01737254
Ti       0.80333280       5.08009723      28.78087896  F      -0.00483442      -0.03376076       0.15906199
Ti       5.01957815       2.31120850      28.84178262  F      -0.03447752       0.00135332       0.20869765
Ti       2.51226222       1.58996878      30.00864809  F      -0.01598059       0.01994494       0.15294805
Ti       3.39341750       4.33342320      30.00942766  F      -0.01294437       0.00845174       0.18497500
Ti       0.05589499       0.78761185      31.30053661  F       0.02386906       0.01360662      -0.01791559
Ti       0.84744730       3.54808659      31.27544430  F       0.00769186      -0.01297968      -0.03295221
Ti       3.38274636       2.73383137      32.49658712  F       0.01120983       0.00002625      -0.34721967
Ti       2.57821261       5.48146256      32.54141222  F      -0.00866655       0.00937013      -0.36792647
Ti       0.84914186       1.96525129      33.76781711  F      -0.06158686       0.00986613      -0.22379456
Ti       0.01623316       4.70408928      33.77278685  F       0.05752717      -0.01288800      -0.22918332
Ti       2.58501120       3.93211833      34.99958153  F      -0.07560944       0.01445522      -0.05713343
Ti       3.38455796       1.18983450      35.00606168  F       0.09232685       0.02330655      -0.07422545
Ti       0.82482774       0.38570245      36.25132235  F      -0.03572994       0.00214537      -0.06090481
Ti       0.05039913       3.13017358      36.26077460  F       0.02628589       0.02297511      -0.05137773
Ti       2.57464030       2.35588342      37.49317242  F       0.12945687      -0.13641366       0.93441170
Ti       3.37764232       5.10865863      37.49658302  F      -0.13246273      -0.12851432       0.94164262
Ti       0.82619153       4.35325185      38.71066102  F       0.46341832       0.12631724       0.50820573
Ti       0.04412468       1.60240565      38.71007634  F      -0.41433310       0.06605272       0.52198896
Ti       3.32152342       3.54339322      40.08571958  F      -0.21049292       0.00643702      -0.88193287
