52
Lattice="4.6568 0.0 0.0 0.0 7.770572 0.0 0.0 0.0 41.044546" Properties=species:S:1:pos:R:3:move_mask:L:1:forces:R:3 job_name=BondOrder-VacuumGB-CSL7-V-V-27-d-1.36 top_level=BondOrder-VacuumGB solute=V energy=-392.53740948 stress_kbar_3x3="_JSON [[-23.95483899, -1.37126075, -1.07966819], [-1.37126075, -26.05005466, -0.39555415], [-1.07966818, -0.39555415, -21.99949158]]" pbc="T T T"
Ti       1.81775394       7.39392460       8.22348001  F       1.05712001      -0.12402770       0.85698834
Ti       4.62862170       5.59740721       8.88520018  F      -0.09623350      -0.07516320       0.01657064
Ti       2.45852031       2.27496705       9.13470998  F      -0.59434320       0.30125028       0.67408048
Ti       4.56632769       0.62234511       9.59990886  F      -0.29641033      -0.38334558       0.23622365
Ti       2.35560503       5.00898065      10.34839720  F      -0.06602408       0.00356982      -0.38684107
Ti       0.02299528       3.33394838      10.53654540  F       0.01055104       0.28285892       0.08369856
Ti       2.31003358       0.01162478      11.17261273  F      -0.04132572       0.16934330      -0.47178246
Ti       0.02930524       6.10198153      11.61556547  F      -0.00704446      -0.02762560      -0.23085050
Ti       2.33832364       2.76305222      12.13178273  F       0.02326093      -0.07382162      -0.20225627
Ti       0.00336221       1.11289355      12.52301934  F      -0.04006922      -0.08226140       0.10430307
Ti       2.34587697       5.56746720      13.14825091  F       0.03599665       0.03476824      -0.03885732
Ti       0.01048246       3.87066178      13.48112218  F      -0.00514517       0.00797516      -0.02266638
Ti       2.33495212       0.56373169      14.11173058  F      -0.00505406      -0.01529566      -0.00694861
Ti       0.01898577       6.63810438      14.44850108  F       0.02316286       0.01861221      -0.02635654
Ti       2.33431414       3.31927754      15.07631846  F       0.02533228      -0.01488062      -0.01619978
Ti       0.01534881       1.66744042      15.45930512  F       0.00346567      -0.04481608      -0.01156784
Ti       2.35228473       6.09658099      15.98221263  F       0.00017401      -0.00259401      -0.00296107
Ti       4.62887783       4.41737592      16.42262061  F      -0.01553357       0.01653884       0.00312853
Ti       2.36046672       1.10651391      17.05023276  F      -0.00260538       0.01111884      -0.01661188
Ti       0.03566177       7.19239482      17.24199288  F       0.00573255      -0.00420733       0.01670448
Ti       2.22652784       3.82993622      18.00895127  F       0.00703116       0.00643728       0.02753654
Ti       0.08944781       2.16192854      18.43593768  F       0.00797021       0.00180936       0.00287100
Ti       2.34206771       6.63857838      18.74857399  F       0.00858666      -0.01400840       0.01139941
Ti       4.16619215       4.83474111      19.37306676  F      -0.00172762      -0.00964493      -0.00898881
Ti       2.66481655       1.64216275      20.07505163  F      -0.00905320       0.00682228      -0.00518233
Ti       0.28650496       7.65354719      20.10152536  F       0.00072454       0.01096302      -0.00467733
Ti       1.31362740       4.91833692      20.77658501  F      -0.00264299      -0.00466599       0.01111495
V        3.19695374       6.48873067      21.44552902  F      -0.01448136      -0.01328014      -0.00980153
Ti       0.62257691       2.25902184      21.63733018  F       0.00119412       0.00468785      -0.00722334
Ti       3.20928494       3.84430400      22.11820808  F       0.00606301      -0.01254716      -0.00213811
Ti       0.71530776       7.19638112      22.80196917  F       0.00142871       0.00644997       0.00637345
Ti       3.01321038       1.06566401      22.93963258  F       0.00248863       0.00889141       0.00339041
Ti       0.77381114       4.44001159      23.69189702  F       0.00412472      -0.00082001      -0.00499897
Ti       3.04920744       6.11143832      24.08284632  F       0.00567611       0.00215883       0.00938856
Ti       0.71921016       1.66268483      24.59697030  F      -0.01074684       0.00260478      -0.00366918
Ti       3.08163740       3.30713990      24.99645687  F      -0.00546966      -0.00344775       0.00004906
Ti       0.73563470       6.65513747      25.63531523  F      -0.01831004      -0.02443476       0.00798185
Ti       3.07409804       0.55990857      25.94630975  F       0.00799544      -0.00856177      -0.02683097
Ti       0.74914407       3.86648899      26.59423896  F       0.00376315       0.03428920       0.02742839
Ti       3.06556678       5.55973548      26.91684909  F      -0.02945201       0.00469671      -0.01443052
Ti       0.74789139       1.11637477      27.54335304  F       0.08663275       0.02639776      -0.02579634
Ti       3.06743882       2.76155250      27.94460452  F      -0.02157055      -0.01756716       0.00407670
Ti       0.72260963       6.09895878      28.45597852  F       0.01583473      -0.06642792       0.08278315
Ti       3.09735410       0.00477113      28.88932684  F       0.01657095       0.01640980       0.22527459
Ti       0.72645614       3.33411156      29.53881573  F      -0.02220781      -0.00789147       0.27118710
Ti       3.04938906       5.00689036      29.71990427  F       0.08060401       0.24453992       0.45096393
Ti       0.84416142       0.62197989      30.46572471  F      -0.19496295       0.13024139       0.09024005
Ti       2.95014334       2.27287677      30.93806535  F       0.37503190       0.16651721      -0.19474118
Ti       0.77854711       5.59722072      31.18630276  F      -0.09781787      -0.23556886       0.26141401
Ti       3.59159425       7.39270462      31.84371326  F      -1.26555647      -0.14576950      -0.17055628
Ti       0.37697262       2.79749140      32.55805254  F       0.32627179      -0.14858224      -1.28872066
Ti       2.70540521       4.56918181      32.55772418  F       0.72099948       0.04130449      -0.28351563
