100
Lattice="4.4265 -2.555641 0.0 3.767997 6.526363 -0.031456 0.0 0.0 61.781652" Properties=species:S:1:pos:R:3:move_mask:L:1:forces:R:3 job_name=BondOrder-VacuumGB-CSL13-Al-Al-57-d-2.88 top_level=BondOrder-VacuumGB solute=Al energy=-759.71609977 stress_kbar_3x3="_JSON [[-35.668698, -2.44992987, 0.02689405], [-2.44992988, -38.21818314, -0.15916447], [0.02689409, -0.1591644, -21.81794502]]" pbc="T T T"
Ti       2.36660977      -1.00643825       8.26063568  F       0.13040252       0.03608951       1.65627359
Ti       5.72506807       1.40327932       8.24405063  F      -0.05606770       0.13993644       1.66653144
Ti       5.10279809      -1.12973680       9.47481707  F       0.11030907      -0.06004944       0.30000726
Ti       4.23556503       3.72184290       9.45810066  F      -0.09773963       0.07375241       0.28649140
Ti       6.88730802       3.54471316      10.33730208  F      -0.21838983      -0.10971593      -1.11313162
Ti       3.62926094       1.08485478      10.35954273  F       0.00940007      -0.25167268      -1.11802997
Ti       1.57246347      -0.74662625      11.12691049  F       0.12956857       0.06182619      -0.58903161
Ti       6.33345401       0.85286904      11.11631996  F      -0.00806634       0.14851331      -0.59868710
Ti       4.76209773       3.14239308      12.17823046  F      -0.08171614       0.01879303      -0.18383333
Ti       4.32654947      -0.96152430      12.19477779  F       0.06338541      -0.06148018      -0.18471985
Ti       3.13261779       5.37684682      12.96553299  F      -0.08880255       0.06115925       0.14839717
Ti       2.65080682       1.29819472      12.98295049  F       0.09731792      -0.04408021       0.14359885
Ti       5.85244725       5.16610703      13.95561188  F       0.00598592      -0.03425432       0.03077087
Ti       5.53045725       1.00392758      13.96811701  F      -0.03084566      -0.01319268       0.02623451
Ti       3.80626091       3.34317092      14.83326864  F      -0.01874189      -0.00436793      -0.00656656
Ti       0.54836558       0.88133663      14.85248881  F       0.00582536      -0.02067460      -0.01027217
Ti       6.68154315       3.00339172      15.66020064  F       0.00736177      -0.00941239      -0.03001151
Ti       3.24241442       0.63898748      15.67660490  F      -0.01273913      -0.00060833      -0.02773559
Ti       6.08420942       0.40319343      16.82863486  F       0.00540886      -0.00268530      -0.01083017
Ti       5.04600185       5.35443380      16.81228571  F      -0.00708042       0.00224296      -0.00727360
Ti       4.49543146       2.62098750      17.43242116  F       0.00170901       0.01323895       0.01723302
Ti       3.99080880      -1.44511209      17.44718427  F       0.01081324       0.00799418       0.01672141
Ti       7.08936135       2.54179495      18.42333756  F      -0.00652691      -0.00208253       0.00047341
Ti       2.62746557       0.76773762      18.43671506  F      -0.00303581      -0.01326077       0.00746662
Ti       5.73350859       4.81886425      19.70509490  F       0.00667568      -0.00023097       0.00032896
Ti       5.26993922       0.73494496      19.71779796  F      -0.00629717      -0.00212712       0.00129576
Ti       0.30874258       0.51082688      20.04584048  F       0.00615900       0.00433114       0.00474079
Ti       3.59229584       2.96267707      20.03117469  F       0.00477517       0.00573173      -0.00306746
Ti       2.83405463       0.57294900      21.24428452  F      -0.00692962      -0.00178709       0.00664683
Ti       6.80847522       2.62631832      21.22510725  F       0.00254601       0.00700769       0.01531562
Ti       4.91249018       5.25585322      22.57690172  F       0.00874052       0.00597127       0.00290404
Ti       1.62842609       2.80215732      22.59040139  F       0.00318896      -0.00005187       0.00372017
Ti       4.37839512       2.46662732      22.67953595  F       0.00787655      -0.00178399       0.00587151
Ti       3.90689072      -1.61074407      22.69427070  F      -0.00513008      -0.00518708      -0.00075283
Ti       6.85966177       2.57853545      24.01263773  F       0.00069288       0.00371009      -0.00351845
Ti       2.76114033       0.59622406      24.02934586  F      -0.00895955      -0.00527981       0.00079319
Ti       5.71883062       4.77925234      25.44379569  F      -0.00113109       0.01207708      -0.00354976
Ti       5.23555677       0.71352296      25.45770975  F       0.01185060       0.01158101       0.00186073
Ti       3.56937379       2.92404828      25.36120351  F      -0.00120924      -0.00713131       0.00691909
Ti       0.27711101       0.47977618      25.36671639  F       0.00854892      -0.01697307      -0.00411185
Ti       2.70212539       0.63457765      26.82254066  F       0.00419042      -0.00105789      -0.01000319
Ti       6.92273493       2.53855239      26.80376031  F      -0.01097047      -0.00534565      -0.00226858
Ti       4.93376733       5.24791106      28.33265006  F       0.00942347      -0.01285248       0.00054326
Ti       6.05004936       0.27037289      28.30698159  F       0.00550687       0.00537097      -0.00357677
Ti       4.41737237       2.47884404      27.99973741  F       0.01092243       0.00595620      -0.00144178
Ti       3.91188588      -1.60400382      27.98805854  F      -0.01198960       0.01203394       0.00686307
Ti       6.72257059       2.71007001      29.65082727  F       0.00359578      -0.00226067      -0.00973075
Ti       3.01106912       0.49305239      29.62253729  F      -0.00067352      -0.01001997      -0.00884714
Ti       3.66341070       3.00791480      30.60417467  F      -0.01163144       0.02765953       0.02732961
Ti       0.42794182       0.65144250      30.53251883  F       0.00623254       0.00966060       0.01340493
Ti       5.69160277       4.94665372      31.19085625  F      -0.00526693       0.00441472      -0.01036316
Ti       5.36122861       0.76691639      31.23285042  F       0.00609483      -0.00503809       0.00013980
Ti       2.62311733       1.01401208      32.39743694  F       0.01369670       0.00497663      -0.00794456
Ti       3.04193073       4.99589804      32.38507257  F       0.02011189      -0.03206177      -0.02398455
Ti       4.20849571      -1.37080853      33.15945069  F      -0.00314007       0.02131742      -0.00555194
Ti       4.82609238       2.87643133      33.13224382  F      -0.01874512       0.00605622      -0.00182075
Ti       6.18295586       0.61028229      34.06803550  F       0.00000051       0.00293137      -0.01025015
Al       5.26516459       5.49799583      34.06525664  F       0.00272236      -0.00749972      -0.00255623
Ti       3.55062536       0.66579557      35.03996436  F       0.01128937       0.00212725      -0.00160706
Ti       6.92434100       3.29595368      35.02545435  F      -0.00253920      -0.00258765       0.01761394
Ti       0.83749066       1.14669036      35.78934585  F      -0.01185104       0.00812222       0.00515815
Ti       4.05202380       3.49282533      35.77081976  F       0.00187094      -0.00391675      -0.00992360
Ti       5.68089720       1.24339788      36.90176936  F      -0.00685747       0.00250711      -0.00118808
Ti       2.21655410      -1.13305030      36.94051118  F       0.00638312      -0.00162469       0.00474546
Ti       3.31274180       5.56531154      37.65921991  F      -0.00011659       0.00452827      -0.00209849
Ti       2.87144122       1.58038852      37.58891656  F       0.00603794      -0.00448062       0.01231767
Ti       4.78448918       3.40927230      38.53110938  F      -0.00480258       0.00149571       0.00037985
Ti       4.64414821      -0.87420260      38.50889080  F      -0.00798466       0.00021184      -0.00432346
Ti       2.03389917       3.49324322      39.80307032  F      -0.00122206      -0.00491453      -0.00104760
Ti       1.61704240      -0.59588235      39.78548348  F      -0.00210833      -0.00369838      -0.00343497
Ti       3.74288655       1.23396164      40.20338209  F      -0.00252969       0.00009463      -0.00914807
Ti       7.02044510       3.71619629      40.20943939  F       0.00432239       0.00041938       0.00221938
Ti       4.46009575       3.68450150      41.31881210  F      -0.00554496       0.00144559      -0.00741725
Ti       4.98992048      -0.96229442      41.34099100  F      -0.00688234      -0.00873536       0.00028212
Ti       2.41639328      -1.00421971      42.65925017  F      -0.00140578       0.00503286       0.00554482
Ti       5.70261737       1.44238150      42.64348571  F       0.01450920      -0.00330488       0.00435441
Ti       3.42215922       5.84896769      42.83187061  F       0.00361187       0.00540729       0.00560312
Ti       2.95420024       1.77803362      42.83712209  F      -0.01591104       0.00243019       0.00262700
Ti       4.60001564       3.63714239      44.11276649  F       0.01422491       0.01401696       0.01051131
Ti       4.87286958      -0.87019333      44.13157957  F       0.00431727       0.00218199       0.00039304
Ti       2.09175698       3.54981578      45.48295015  F      -0.00925143      -0.00485784      -0.00357645
Ti       1.62671604      -0.53217487      45.49614356  F      -0.00248362      -0.00831933      -0.00884303
Ti       7.06674667       3.76784134      45.51965974  F      -0.00942803       0.02078756      -0.01554726
Ti       3.75524399       1.32956072      45.53192533  F       0.02209748       0.01063320      -0.01127678
Ti       4.58146291       3.66027131      46.88338156  F       0.00903152       0.00091623      -0.00351491
Ti       4.90375892      -0.87517471      46.90046319  F       0.00398144       0.01063969      -0.00342063
Ti       5.72745674       1.46369183      48.31361508  F       0.03427580      -0.03871866      -0.07799482
Ti       2.42806946      -0.98392441      48.32934890  F      -0.05881855       0.01315438      -0.07834669
Ti       3.43214581       5.87800049      48.22281177  F       0.05739150      -0.01044335       0.03062609
Ti       2.97153880       1.79224036      48.23848082  F      -0.03222850       0.04443355       0.02599647
Ti       4.54147503       3.69393103      49.65622745  F      -0.00725594       0.08196873       0.24567619
Ti       4.95166640      -0.89276611      49.67158102  F       0.06839875       0.03695088       0.24628598
Ti       2.09983745       3.55728956      51.15705676  F       0.28293458       0.01310343       0.74924442
Ti       1.62604484      -0.52075344      51.17043951  F      -0.13084849       0.25124273       0.74791854
Ti       7.05914514       3.78084488      50.90359067  F       0.35830787      -0.09114861       0.37489359
Ti       3.76678671       1.33373900      50.92184102  F      -0.26454278       0.25902630       0.36962079
Ti       4.69535699       3.58538632      52.45494572  F       0.17990118      -0.28267365      -0.48817430
Ti       4.77550549      -0.81206575      52.46684423  F      -0.33333840       0.01369141      -0.47270179
Ti       3.40711260       5.81145691      53.52786255  F       0.11557844      -0.26774019      -1.02741003
Ti       2.91271973       1.74108709      53.54546171  F      -0.27972800      -0.03951291      -1.03643100
