64
Lattice="5.872 0.0 0.0 0.0 6.890708 0.0 0.0 0.0 43.394398" Properties=species:S:1:pos:R:3:move_mask:L:1:forces:R:3 job_name=BondOrder-VacuumGB-T1g-Al-Al-48-d-6.96 top_level=BondOrder-VacuumGB solute=Al energy=-482.05069383 stress_kbar_3x3="_JSON [[-17.4805683, -0.00020733, 0.00028123], [-0.0002073, -26.19327376, -0.51237038], [0.00028123, -0.51237039, -18.21670017]]" pbc="T T T"
Ti       4.40397064       5.20704619      34.62981446  F       0.00007476      -0.28703251      -0.46258556
Ti       1.46809395       5.21109793      34.63831977  F      -0.00012220      -0.27758866      -0.44441352
Ti       5.86793070       3.19012218       8.53854212  F       0.01217118       0.16084200       0.95649745
Ti       2.94012214       3.19008083       8.53858551  F      -0.01245850       0.16104740       0.95655373
Ti       0.00021726       6.62829606       9.15669532  F      -0.00237117      -0.20074486       0.13658214
Ti       2.93575925       6.62828917       9.15669532  F       0.00230116      -0.20065916       0.13689204
Ti       4.40405285       1.76506864      10.44655040  F      -0.00039207       0.03744259      -0.51266357
Ti       1.46788843       1.76546830      10.44524857  F       0.00047507       0.04629117      -0.51978335
Ti       1.46797064       4.59495149      10.66365258  F       0.00012133       0.11131199      -0.36517795
Ti       4.40399413       4.59483435      10.66590908  F      -0.00004138       0.11784183      -0.36544341
Ti       0.00147387       6.72487622      11.97498789  F      -0.00427408      -0.10036378       0.01776238
Ti       2.93442630       6.72483488      11.97503128  F       0.00420559      -0.10006487       0.01738341
Ti       2.93656958       2.87547178      12.58498294  F      -0.00232784      -0.07067939       0.10615374
Ti       5.87133646       2.87548556      12.58506973  F       0.00231471      -0.07077181       0.10597968
Ti       4.40394128       5.00563768      13.74621703  F      -0.00003266       0.06395897      -0.08180368
Ti       1.46790605       5.00565147      13.74543593  F       0.00021939       0.06053276      -0.08498515
Ti       4.40394128       0.93374606      14.22229697  F      -0.00002049       0.00785751       0.04167035
Ti       1.46790605       0.93266422      14.22260073  F       0.00013374       0.01141131       0.04307254
Ti       2.93528949       3.09345243      15.40800550  F      -0.00119868      -0.03454120      -0.03150671
Ti       0.00064592       3.09347311      15.40804890  F       0.00108374      -0.03460929      -0.03128128
Ti       2.93531885       6.02154855      16.00858397  F       0.00052155       0.00332075      -0.04679746
Ti       0.00058133       6.02156233      16.00867076  F      -0.00053825       0.00323854      -0.04703207
Ti       4.40401174       1.29171834      17.19008325  F      -0.00006485      -0.00509487       0.00486484
Ti       1.46801174       1.29198019      17.18956251  F       0.00004426      -0.00249376       0.00466480
Ti       4.40398826       4.10868801      17.66828951  F      -0.00008399       0.00647947       0.03557976
Ti       1.46795302       4.10897052      17.66976492  F       0.00024485       0.00276300       0.02943348
Ti       2.94147270       6.23804770      18.83060846  F       0.00169227      -0.00618747       0.00232560
Ti       5.86659189       6.23802703      18.83065186  F      -0.00185883      -0.00589123       0.00248436
Ti       2.93071520       2.38580428      19.43687160  F       0.00024334      -0.00347990      -0.00159684
Ti       0.00536701       2.38583874      19.43678481  F      -0.00040499      -0.00361560      -0.00090721
Ti       1.46805285       4.50911394      20.76118184  F       0.00020133      -0.01220589       0.00520955
Ti       4.40404698       4.51215274      20.74803333  F       0.00004809      -0.00883745       0.00391576
Ti       4.40398826       0.45486253      20.96292239  F       0.00010292       0.00377510      -0.00422575
Ti       1.46810570       0.44557385      20.96717504  F       0.00007502       0.00140837      -0.00343084
Ti       0.01883150       2.46744539      22.25559811  F       0.00325996      -0.00071077       0.00432029
Ti       2.91736227       2.46749363      22.25559811  F      -0.00351720      -0.00065750       0.00492129
Ti       5.83722602       5.92618115      22.88373202  F      -0.00230806       0.01124423      -0.00378077
Ti       2.97095014       5.92611224      22.88377542  F       0.00211122       0.01139726      -0.00353996
Ti       4.40409395       3.89716394      24.16386677  F       0.00001242      -0.00727768       0.00007122
Ti       1.46798826       3.90007182      24.12290245  F       0.00008933      -0.00254987      -0.00078776
Ti       4.40414680       1.06300196      24.35935853  F      -0.00019094      -0.00426363       0.01027968
Ti       1.46809395       1.05039196      24.41004319  F       0.00008251       0.00082993       0.00391481
Ti       5.86164766       5.85358065      25.71282980  F       0.00907666       0.01532875       0.00192843
Ti       2.94647565       5.85360132      25.71291659  F      -0.00908574       0.01547373       0.00160899
Ti       2.89294650       2.82217904      26.29336006  F      -0.00140944       0.02288445       0.00528642
Ti       0.04312397       2.82217215      26.29340345  F       0.00138002       0.02298086       0.00507287
Ti       4.40402349       0.74224639      27.42369734  F      -0.00008302      -0.01532198       0.01042449
Ti       1.46797651       0.63645335      27.43918914  F       0.00012347      -0.01576267      -0.01340283
Al       1.46798826       4.74075887      27.92672520  F       0.00024037      -0.01656962      -0.00711272
Ti       4.40403523       4.78211690      27.95454101  F      -0.00001317       0.01769203      -0.00479588
Ti       2.91510742       2.60254461      29.09911165  F       0.01006123      -0.01694020      -0.01368116
Ti       0.02092194       2.60255150      29.09915504  F      -0.01015633      -0.01686812      -0.01412575
Ti       2.94755610       6.53121287      29.66579909  F      -0.01381542       0.03640844       0.02876798
Ti       5.86046152       6.53119909      29.66584249  F       0.01375605       0.03638719       0.02845671
Ti       4.40400000       4.37447639      30.92471397  F      -0.00013176      -0.01880441       0.04549211
Ti       1.46800587       4.37457286      30.86318072  F       0.00018089      -0.00325926      -0.01335453
Ti       4.40400000       1.54771503      31.33427030  F      -0.00024355       0.01052256      -0.05288001
Ti       1.46797651       1.56301240      31.31205237  F       0.00035725      -0.00598166      -0.05621745
Ti       2.92478448       6.31696698      32.50405309  F      -0.00750438      -0.05667494       0.72322630
Ti       0.01120378       6.31699454      32.50405309  F       0.00763397      -0.05699460       0.72357130
Ti       0.01015856       3.26718096      33.11035962  F      -0.02620032       0.26189732       0.25644886
Ti       2.92586493       3.26717407      33.11040301  F       0.02626487       0.26189812       0.25628230
Ti       1.46804698       1.14954236      34.42798712  F       0.00002402       0.09520962      -0.76460909
Ti       4.40400587       1.14529769      34.44616937  F      -0.00007924       0.04382134      -0.76517743
