64
Lattice="5.088765 0.0 0.0 0.0 9.739025 0.0 0.0 0.0 38.303587" Properties=species:S:1:pos:R:3:move_mask:L:1:forces:R:3 job_name=BondOrder-VacuumGB-T2-Al-Al-50-d-6.29 top_level=BondOrder-VacuumGB solute=Al energy=-477.62670743 stress_kbar_3x3="_JSON [[-18.63954445, -0.41151088, 0.18862671], [-0.4115109, -20.23758431, 0.0998552], [0.18862673, 0.09985521, -21.27357595]]" pbc="T T T"
Ti       2.54676913       9.25674848       8.37167028  F       0.85378538       0.07029592       0.88802132
Ti       5.06034425       4.38613547       8.35205884  F       0.88851862      -0.01358169       0.91383831
Ti       1.27214036       1.89140631       8.96338409  F      -0.83328024      -0.43563842       0.62395790
Ti       3.80330225       6.74845285       8.94882873  F      -0.82048861      -0.42317034       0.63780956
Ti       2.70056688       4.08270641       9.75140379  F      -0.17193001      -0.07575705       0.07442232
Ti       0.14330471       8.95213126       9.72156529  F      -0.14276564      -0.11276167       0.11326637
Ti       1.03119752       6.22286689      10.45312550  F       0.09262085       0.28465027      -0.64010926
Ti       3.58586441       1.35081251      10.47304336  F       0.09695060       0.26551968      -0.70861711
Ti       0.22153430       3.50061462      11.12098684  F       0.04716753       0.24558394      -0.47866347
Ti       2.76926520       8.36709829      11.11010862  F       0.04354388       0.24310696      -0.47405413
Ti       1.11179338       0.86614993      11.84216678  F      -0.05117708       0.02897432      -0.19983533
Ti       3.65380451       5.74147663      11.84737607  F      -0.05630986       0.01688726      -0.18286878
Ti       2.75358163       3.10522969      12.54461626  F       0.01493594      -0.07256516      -0.04416548
Ti       0.21056292       7.97653417      12.53423599  F       0.01696089      -0.08073516      -0.03386768
Ti       3.61470244       0.43601615      13.20117805  F       0.00658049       0.03887412      -0.01688219
Ti       1.07180586       5.30886913      13.19642840  F       0.00545958       0.03265075      -0.01202151
Ti       2.75069121       7.52264691      13.92603513  F       0.00331432      -0.03250308       0.03598924
Ti       0.20751984       2.65194625      13.92507754  F      -0.00317323      -0.02737996       0.03045964
Ti       3.61684481       4.87088570      14.64794283  F      -0.00258910       0.02094880      -0.03084150
Ti       1.06896124       0.00110051      14.64533819  F       0.00966381       0.01825584      -0.02660841
Ti       0.21294955       7.06816557      15.31097792  F       0.00393348      -0.00579007       0.00323701
Ti       2.75706743       2.19811742      15.31224194  F       0.00386390       0.00299631       0.00493742
Ti       1.11281113       4.43801526      16.00113195  F      -0.00452038       0.00997798      -0.00978038
Ti       3.65437954       9.30429440      16.00086383  F       0.00012104       0.01347528      -0.00758842
Ti       0.22381915       1.80750461      16.73606288  F      -0.01728887       0.00200109       0.00422839
Ti       2.77070532       6.67958821      16.74146368  F      -0.01767558       0.00322878      -0.00695704
Ti       1.03569090       8.82776391      17.38205287  F      -0.01329023       0.01013330       0.00528877
Ti       3.58126926       3.95687821      17.38377653  F      -0.01216722       0.01261888      -0.00300808
Ti       2.70719754       1.23277552      18.10897834  F       0.00232079      -0.01287991       0.00581381
Ti       0.15882036       6.09399037      18.11307683  F       0.00481842      -0.01152570       0.00294836
Ti       3.81310830       8.29391925      18.89370393  F       0.00794799      -0.00640713       0.01014805
Ti       1.26479219       3.42018976      18.89504456  F       0.00979318      -0.00567431       0.00846985
Ti       5.07741197       0.91881857      19.50583355  F       0.00898236      -0.01001033      -0.01205737
Ti       2.53702923       5.78611058      19.49158462  F      -0.00349718      -0.00804560       0.00048408
Ti       3.80535302       3.43582089      20.12868818  F      -0.00037701      -0.01354084       0.00187617
Ti       1.25843632       8.29604236      20.11995497  F       0.00053367      -0.00023832       0.00127558
Ti       2.36695762       1.24561156      20.88265599  F      -0.01368341      -0.00718279       0.00493248
Ti       4.88828293       6.10988446      20.90031394  F      -0.01695115       0.00087490       0.00139085
Ti       1.48366506       3.97775868      21.64095210  F       0.01885237      -0.00466560      -0.00727221
Ti       4.03901893       8.83111413      21.64294389  F       0.01671762      -0.00276583      -0.01681434
Ti       4.85703282       1.80712478      22.26775200  F       0.01134733       0.03441920       0.00007509
Ti       2.30005054       6.68883054      22.24825547  F       0.00462043       0.00886305      -0.02653648
Ti       1.43697055       9.30334972      23.00034640  F       0.01151690       0.00119509      -0.00064538
Ti       3.95893195       4.44706281      23.03455151  F       0.02326341      -0.01534959      -0.01222450
Ti       4.90843443       7.07085354      23.70911598  F       0.02386660       0.00813307       0.03565781
Ti       2.32256323       2.18174612      23.67410650  F      -0.00014515       0.05296604       0.02374750
Ti       1.50617266       4.87710894      24.38961750  F      -0.00643164      -0.05170862      -0.04224045
Ti       4.04068805       9.73720380      24.37303205  F      -0.02732227      -0.01944276       0.00722769
Ti       2.41213059       7.52117631      25.06299456  F      -0.02968385       0.03275650       0.04322647
Ti       4.89861821       2.66503550      25.09133922  F      -0.00770353       0.03580564       0.00592082
Al       4.05360842       5.30978460      25.78363825  F       0.04809289       0.01616470       0.03256326
Ti       1.47832694       0.44135313      25.78926888  F       0.04460340      -0.04541060       0.13855363
Ti       4.90084709       7.95607248      26.44992915  F      -0.08227352      -0.00658943       0.18822051
Ti       2.39826879       3.10973886      26.47026835  F      -0.06594815       0.04874244       0.20816894
Ti       1.48798033       5.74994958      27.12878362  F       0.14809475       0.08092538       0.45131330
Ti       4.00470030       0.89387693      27.13736362  F       0.10971754       0.02328940       0.53010864
Ti       2.32089921       8.39903255      27.89056536  F       0.07022451       0.22901117       0.39674041
Ti       4.89170766       3.50902914      27.86490195  F       0.17916928       0.34915954       0.32196748
Ti       1.49358815       1.34307972      28.52832008  F      -0.28284951       0.16055275       0.21437766
Ti       4.01196197       6.19265644      28.49947748  F      -0.35201366       0.18793504       0.24392275
Ti       4.88830328       8.91065275      29.24314162  F      -0.68794126      -0.59108223      -0.50363003
Ti       2.33774811       4.04792835      29.28454780  F      -0.79893985      -0.52275095      -0.48705552
Ti       3.82252761       1.86752622      30.01779336  F       0.86091424       0.00573787      -1.13285922
Ti       1.25773407       6.73829505      30.00691515  F       0.82959920       0.01844188      -1.09738314
