64
Lattice="5.872 0.0 0.0 0.0 6.890708 0.0 0.0 0.0 43.394398" Properties=species:S:1:pos:R:3:move_mask:L:1:forces:R:3 job_name=BondOrder-VacuumGB-T1g-Al-Al-41-d-3.41 top_level=BondOrder-VacuumGB solute=Al energy=-482.02446336 stress_kbar_3x3="_JSON [[-17.15897436, -0.00056427, -0.00026919], [-0.00056427, -26.13712362, 0.50983863], [-0.0002692, 0.50983863, -18.72083072]]" pbc="T T T"
Ti       4.40404110       5.20719089      34.64192150  F      -0.00018920      -0.28275891      -0.46093304
Ti       1.46793541       5.20934079      34.64213847  F       0.00022926      -0.28432974      -0.47493421
Ti       0.00300646       3.18529179       8.53841193  F      -0.01084145       0.16204720       0.98478480
Ti       2.93294656       3.18527112       8.53845533  F       0.01087932       0.16212704       0.98451433
Ti       5.86991544       6.63054932       9.16060081  F       0.01005895      -0.20333807       0.16123658
Ti       2.93806694       6.63053554       9.16064421  F      -0.01014159      -0.20344067       0.16091743
Ti       4.40395302       1.76496527      10.45509910  F       0.00010766       0.04559814      -0.53111877
Ti       1.46799413       1.76559233      10.45583680  F      -0.00005899       0.03707707      -0.52997338
Ti       1.46798826       4.59346999      10.66938064  F       0.00000377       0.11296617      -0.35660956
Ti       4.40394715       4.59351822      10.66764486  F       0.00007950       0.10481718      -0.35874986
Ti       5.87146565       6.72167893      11.98470823  F       0.00245787      -0.11143537       0.01256371
Ti       2.93651086       6.72170650      11.98470823  F      -0.00254463      -0.11160437       0.01289468
Ti       2.93452026       2.87031064      12.59925970  F       0.00272542      -0.06682292       0.09793142
Ti       0.00142102       2.87031753      12.59925970  F      -0.00273112      -0.06673672       0.09801077
Ti       4.40398826       4.99791320      13.75667508  F      -0.00000072       0.06059802      -0.08869278
Ti       1.46798238       4.99927756      13.75715242  F       0.00000238       0.07282279      -0.08425582
Ti       4.40398238       0.92436781      14.23414364  F       0.00000651       0.00405205       0.03854905
Ti       1.46797651       0.92426445      14.23939437  F      -0.00000266       0.00712202       0.04074255
Ti       2.93684557       3.07796212      15.42423501  F      -0.00259891      -0.03464464      -0.03165271
Ti       5.87111920       3.07795523      15.42423501  F       0.00275147      -0.03454761      -0.03178829
Ti       2.93465531       6.01159147      16.02620210  F      -0.00243791      -0.00511716      -0.05973083
Ti       0.00135056       6.01162593      16.02624549  F       0.00245353      -0.00544356      -0.05994526
Ti       4.40404110       1.26741481      17.20245065  F      -0.00011995      -0.00208370       0.00024137
Ti       1.46801174       1.27250016      17.21572934  F       0.00013150       0.00219221      -0.00362928
Ti       4.40404698       4.09150947      17.67792307  F      -0.00004233       0.00387690       0.03089428
Ti       1.46801174       4.09546474      17.69332808  F      -0.00009816      -0.00734998       0.02432248
Ti       2.92797298       6.20776993      18.84740209  F       0.00179525      -0.01909162       0.00071946
Ti       0.00812098       6.20785951      18.84740209  F      -0.00173939      -0.01981440       0.00100045
Ti       2.95058018       2.38163541      19.45370862  F       0.00095521       0.00377438      -0.01256285
Ti       5.85749029       2.38162162      19.45370862  F      -0.00090302       0.00390135      -0.01311558
Ti       1.46811157       4.47685853      20.82905067  F      -0.00034631      -0.01080914       0.00733512
Ti       4.40407634       4.48807661      20.77819244  F       0.00009311      -0.00559532       0.00684584
Ti       4.40397651       0.42557013      20.95111912  F      -0.00001789      -0.00657908      -0.00849274
Ti       1.46812331       0.44622158      20.95450388  F      -0.00001445      -0.00074442      -0.01120613
Ti       5.82409622       2.45170702      22.28020274  F       0.01244221       0.00558202       0.02396141
Ti       2.98391552       2.45179659      22.28037631  F      -0.01239169       0.00552652       0.02276766
Ti       0.05865541       5.99347580      22.89032797  F       0.00020525       0.00899931      -0.01246497
Ti       2.87746203       5.99348958      22.89041476  F      -0.00017374       0.00841175      -0.01238877
Ti       4.40415267       4.00919307      24.07694779  F      -0.00027495      -0.02541040      -0.01088419
Ti       1.46782971       3.87773904      24.10012039  F       0.00008192      -0.02544806      -0.00672494
Ti       4.40394715       1.14547684      24.43356295  F       0.00078671       0.02978326      -0.00260782
Al       1.46805872       1.09170865      24.38005766  F      -0.00051944       0.02077260       0.00787976
Ti       0.02845571       5.87239917      25.65980185  F      -0.00370214       0.00414660      -0.00248346
Ti       2.90759714       5.87245430      25.65980185  F       0.00371024       0.00380395      -0.00206140
Ti       2.95838994       2.82315752      26.23863972  F      -0.02619440       0.01860275      -0.02152257
Ti       5.84965117       2.82319197      26.23863972  F       0.02607875       0.01819301      -0.02103719
Ti       4.40402349       0.68393033      27.46435789  F      -0.00004661      -0.01338213       0.02751686
Ti       1.46803523       0.68707249      27.40373591  F       0.00004525      -0.00522624       0.00680250
Ti       1.46801762       4.75064704      27.86827295  F      -0.00002533       0.00997099      -0.01954970
Ti       4.40404110       4.74535497      27.88866831  F      -0.00002526       0.00767221      -0.00570595
Ti       2.92535406       2.58899748      29.07424666  F       0.01561883      -0.02299786      -0.00857041
Ti       0.01066942       2.58903194      29.07433345  F      -0.01549962      -0.02340232      -0.00893351
Ti       2.92528360       6.53786930      29.67347990  F       0.00848682       0.03190067       0.01843056
Ti       0.01078099       6.53783484      29.67343651  F      -0.00843099       0.03214865       0.01863336
Ti       4.40404110       4.37683991      30.87285767  F      -0.00012825       0.01159048       0.02515238
Ti       1.46801174       4.38177365      30.85949219  F       0.00003061       0.01428390       0.03937740
Ti       4.40400587       1.55345499      31.33427030  F       0.00007575       0.02582997      -0.03583067
Ti       1.46805872       1.55849210      31.34108322  F      -0.00019486       0.00176255      -0.01636762
Ti       2.93897123       6.32043990      32.49914952  F      -0.01619198      -0.06729382       0.74724375
Ti       5.86903464       6.32043990      32.49914952  F       0.01622613      -0.06724742       0.74678192
Ti       0.00031122       3.27431285      33.10927476  F      -0.00008810       0.28494859       0.24125558
Ti       2.93567117       3.27428528      33.10923136  F       0.00016597       0.28512816       0.24161678
Ti       1.46794128       1.14621415      34.42989647  F       0.00018027       0.06530925      -0.75786485
Ti       4.40400000       1.14587651      34.42616455  F      -0.00014941       0.05535591      -0.76853513
