64
Lattice="5.088765 0.0 0.0 0.0 9.739025 0.0 0.0 0.0 38.303587" Properties=species:S:1:pos:R:3:move_mask:L:1:forces:R:3 job_name=BondOrder-VacuumGB-T2-V-V-47-d-4.86 top_level=BondOrder-VacuumGB solute=V energy=-481.6966233 stress_kbar_3x3="_JSON [[-17.22771203, -5.08226372, 0.86543092], [-5.08226371, -21.08318014, -0.2668408], [0.86543094, -0.2668408, -21.10915918]]" pbc="T T T"
Ti       2.58197830       9.30128504       8.40683297  F       0.76738512       0.09566889       0.90063642
Ti       0.03252230       4.43044804       8.41154431  F       0.75314541       0.08964940       0.89539750
Ti       1.30430645       1.97526905       8.91979461  F      -0.77132620      -0.28717734       0.59037123
Ti       3.85380315       6.84433356       8.92596149  F      -0.78294087      -0.29465002       0.58347990
Ti       2.63947116       4.22262698       9.67778429  F      -0.10707812      -0.23229166       0.15419214
Ti       0.10418229       9.09201287       9.67173232  F      -0.13599284      -0.22678480       0.16965733
Ti       1.00906648       6.32544804      10.48373007  F       0.10279733       0.26702835      -0.70464317
Ti       3.55557099       1.46000645      10.47430738  F       0.10031483       0.25080965      -0.69206177
Ti       0.25283529       3.57426113      11.11604568  F       0.07738695       0.21263977      -0.44894372
Ti       2.79997081       8.44227382      11.11198550  F       0.09073419       0.22468448      -0.43651503
Ti       1.10751373       0.91098840      11.83339526  F      -0.06701028       0.02140261      -0.18477110
Ti       3.65034924       5.77754023      11.84032821  F      -0.06481889       0.03743658      -0.20537320
Ti       2.72308975       3.18458326      12.55511144  F       0.00799586      -0.11855116      -0.00678997
Ti       0.17907873       8.05241091      12.55591582  F       0.00901464      -0.10031133      -0.00874146
Ti       3.59262738       0.52348233      13.20213563  F       0.01196260       0.05013535      -0.03646582
Ti       1.04793955       5.39033608      13.20627242  F       0.01260808       0.06667047      -0.03469220
Ti       2.75089985       7.58985592      13.89294083  F      -0.00408645      -0.03789876       0.03412997
Ti       0.20601865       2.72267105      13.89408993  F       0.00084950      -0.06204644       0.02543660
Ti       3.60810231       4.93472501      14.66276632  F       0.00773416       0.02127789      -0.01932843
Ti       1.06337887       0.06555338      14.66380051  F       0.01142366       0.01693680      -0.02391062
Ti       0.20596267       7.13994218      15.34820901  F      -0.00537062       0.01290266       0.00983012
Ti       2.75131204       2.27312739      15.34457017  F      -0.00811139      -0.00731796       0.01047778
Ti       1.10162602       4.49277780      15.96665872  F      -0.01086208       0.01585013       0.00281843
Ti       3.64520450       9.36301098      15.96696515  F      -0.01854282       0.01529164      -0.00501554
Ti       0.14830188       1.92046756      16.72185224  F      -0.02003057      -0.00097052       0.00443128
Ti       2.69272509       6.78764269      16.72143090  F      -0.01911341       0.02295760       0.01356460
Ti       0.96514535       8.97544648      17.42717450  F       0.04484127       0.01819607      -0.00765418
Ti       3.51418407       4.11027759      17.42031815  F       0.03641140       0.02842960       0.01343542
Ti       2.82431546       1.29741343      18.05397439  F      -0.00962690      -0.02370468      -0.03562714
Ti       0.28512859       6.16496839      18.06171172  F      -0.00991151      -0.02543437      -0.02698189
Ti       3.75625662       8.27474311      18.93825100  F      -0.03875311      -0.03428124      -0.00350403
Ti       1.22322206       3.40566887      18.93537823  F      -0.03687794      -0.01299871       0.01514748
Ti       5.05024814       0.79453888      19.67781666  F       0.04236297       0.03563097       0.01643750
Ti       2.51708636       5.67690689      19.69015042  F       0.02606366       0.00618806      -0.00280957
Ti       3.76597107       3.21953662      20.04219868  F       0.06041278      -0.01499958      -0.00730185
Ti       1.20899897       8.09867128      20.05935869  F       0.04467026      -0.00331635      -0.01138891
Ti       2.51067961       0.92887899      20.80022667  F      -0.06151364      -0.01026839       0.01030349
Ti       5.06597751       5.79068792      20.81121980  F      -0.03874413      -0.00947277       0.00450039
Ti       1.63824138       3.70788055      21.66496845  F      -0.00477879       0.00140755       0.01512955
Ti       4.15533792       8.58223335      21.68285623  F      -0.00230878       0.00562020       0.02850919
Ti       4.70362691       1.78282592      22.31084353  F       0.04248156       0.00207718       0.00688068
Ti       2.18425569       6.68932723      22.29927585  F       0.02390909       0.00226107       0.00771038
Ti       1.35445114       9.41561146      23.05971696  F       0.00389018      -0.00244905       0.01253268
Ti       3.94336542       4.50090988      23.05182642  F      -0.00342814      -0.00131732      -0.00707771
Ti       4.98397715       7.07329803      23.82241799  F      -0.02519381      -0.01649987      -0.00086927
Ti       2.45403657       2.18435618      23.82789540  F      -0.03983258      -0.00400086      -0.01048313
Ti       1.42839089       4.79881692      24.30718819  F      -0.01395109       0.01368580      -0.01180492
V        3.94398625       9.64248205      24.22242235  F      -0.02389013       0.02445438      -0.00821082
Ti       2.45226568       7.44239734      24.99148177  F      -0.01833558       0.00049378       0.03659132
Ti       4.95643675       2.49811835      24.98983471  F      -0.03131432      -0.02884428       0.02659739
Ti       4.06110926       5.20395062      25.80263683  F       0.07574079       0.01025431       0.16288399
Ti       1.55775748       0.31850507      25.77448369  F       0.06351052      -0.00715375       0.16337672
Ti       4.81635832       7.99118166      26.42855574  F      -0.09450965      -0.04788089       0.15607273
Ti       2.27711038       3.10445057      26.48547487  F      -0.09376631      -0.02752643       0.19537750
Ti       1.42716450       5.78047168      27.13196282  F       0.14166148       0.07284285       0.48096653
Ti       3.97671210       0.89389641      27.09806414  F       0.13397361       0.03916904       0.44322519
Ti       2.37482994       8.35497320      27.90684438  F       0.03553692       0.24084316       0.33570079
Ti       4.92300866       3.47312136      27.89336152  F       0.00961674       0.25623552       0.33844848
Ti       1.51032001       1.28700241      28.50702329  F      -0.27255517       0.23180145       0.17004842
Ti       4.05827482       6.16522160      28.51843775  F      -0.25709155       0.24579203       0.16914549
Ti       4.88715831       8.88878864      29.18783124  F      -0.64910922      -0.56332839      -0.44964629
Ti       2.33162632       4.01444558      29.20487634  F      -0.66506259      -0.51963209      -0.45373293
Ti       3.84648551       1.86378643      30.01549515  F       0.83634397       0.02177642      -1.18106071
Ti       1.30299354       6.73775940      30.03499167  F       0.83105997       0.04260732      -1.17803921
