100
Lattice="4.4265 -2.555641 0.0 3.767997 6.526363 -0.031456 0.0 0.0 61.781652" Properties=species:S:1:pos:R:3:move_mask:L:1:forces:R:3 job_name=BondOrder-VacuumGB-CSL13-Al-Al-54-d-2.65 top_level=BondOrder-VacuumGB solute=Al energy=-757.63493255 stress_kbar_3x3="_JSON [[-35.16955986, -2.0331882, -0.12334755], [-2.03318819, -37.99949594, 0.70434402], [-0.12334756, 0.70434407, -23.27181697]]" pbc="T T T"
Ti       2.43364208      -0.95672021       8.06749552  F       0.15143235      -0.00686554       1.72221583
Ti       5.73095995       1.49135985       8.05256750  F      -0.07801837       0.12344508       1.72018117
Ti       4.97083774      -0.87505778       9.39595627  F       0.44252316      -0.00547702      -0.02242023
Ti       4.53629359       3.72719616       9.38047373  F      -0.22217578       0.37906362      -0.02555535
Ti       7.06573397       3.79988309      10.60488104  F      -0.14480085      -0.04579205      -1.01952020
Ti       3.77283927       1.34993676      10.61968300  F       0.03472599      -0.15187159      -1.02126256
Ti       1.63648153      -0.50161342      10.91119995  F       0.27374470      -0.23206290      -0.16220978
Ti       2.10264022       3.57876600      10.89417957  F      -0.33616838       0.12173220      -0.15977146
Ti       4.72168418       3.58272563      12.17820582  F       0.01740063      -0.13500928      -0.31895625
Ti       4.75975986      -0.79015722      12.19510764  F      -0.12819138      -0.05030280      -0.32228196
Ti       3.40767003       5.80113669      13.22525583  F      -0.08753160       0.03636888       0.05138685
Ti       2.91461684       1.73598026      13.24141237  F       0.07215696      -0.05693559       0.05051025
Ti       2.36449077      -1.00879999      13.78386654  F       0.03405072      -0.04659271       0.01615362
Ti       5.73269329       1.39837220      13.76850599  F      -0.05737154       0.00801835       0.01761795
Ti       4.22170072       3.70897180      14.95804056  F      -0.01043056       0.01782559      -0.03173859
Ti       5.12542489      -1.16378047      14.97389241  F       0.02316965      -0.00067906      -0.03401836
Ti       6.88748345       3.51632227      15.82843401  F      -0.00523915      -0.00975165      -0.01976982
Ti       3.62589684       1.04637711      15.84342827  F      -0.01074825      -0.00554315      -0.01947950
Ti       6.33431405       0.82205537      16.63056556  F      -0.00964748      -0.01062460      -0.00169106
Ti       1.57003649      -0.77890106      16.64753174  F      -0.00561797      -0.01220012      -0.00229323
Ti       4.76661229       3.09785254      17.67707264  F      -0.00771164      -0.00690712       0.00332013
Ti       4.32643745      -0.99846845      17.69279901  F      -0.00078531      -0.00801107       0.00466835
Ti       3.12762770       5.33558353      18.46710155  F      -0.00699626      -0.00934567       0.00426673
Ti       2.65628258       1.25624929      18.48351116  F      -0.00005068      -0.00872378       0.00161217
Ti       5.86065490       5.11812901      19.46422027  F      -0.00226810      -0.01395839      -0.00531741
Ti       5.52977437       0.95736684      19.47908654  F      -0.01141505      -0.00806762      -0.00154491
Ti       0.55046142       0.82365180      20.35008614  F      -0.00424699      -0.00173504      -0.00901502
Ti       3.80963863       3.29524039      20.33521452  F      -0.00476727      -0.00688329      -0.00683921
Ti       3.23916857       0.58507412      21.18482619  F       0.00235901       0.00247846      -0.00196469
Ti       6.68412975       2.94835607      21.16754886  F      -0.00335873      -0.00916178      -0.00151166
Ti       5.04553784       5.28941197      22.32548388  F      -0.00365104      -0.00857203      -0.00192639
Ti       6.08875336       0.33496699      22.33633559  F      -0.00014787      -0.00150967      -0.00045913
Ti       4.49150262       2.54707140      22.93181962  F      -0.00372143      -0.00794960      -0.00328741
Ti       3.98964611      -1.51459486      22.94816726  F       0.00025281      -0.00124970      -0.00305524
Ti       7.08408228       2.46702247      23.92706665  F      -0.00868980      -0.00754756       0.00017783
Ti       2.62569453       0.68745905      23.94589351  F       0.00610655       0.00227846      -0.00460511
Ti       5.73981952       4.72135413      25.22994954  F       0.00025761      -0.00649996       0.00021153
Ti       5.25958990       0.64563524      25.24024824  F       0.00871677       0.00466610      -0.00060588
Ti       3.58101729       2.87126719      25.53028104  F      -0.00081933       0.00336589      -0.00605609
Ti       0.30377544       0.40151083      25.54166218  F      -0.00532116      -0.00070061      -0.00356083
Ti       2.81002603       0.47453367      26.75030056  F       0.00175422       0.01042270       0.00150952
Ti       6.80380585       2.50885949      26.73776237  F      -0.00050889      -0.00686145      -0.00244633
Ti       4.88519632       5.16029769      28.13091858  F      -0.00084283      -0.00182885       0.00076346
Ti       1.62425477       2.67291584      28.14059953  F       0.00090166       0.00485032       0.00113114
Ti       4.36921089       2.35066131      28.14604420  F       0.00289815       0.00761409      -0.00414531
Ti       3.86248402      -1.72525732      28.16628399  F       0.00811405      -0.00013021       0.00385992
Ti       6.80289062       2.44631713      29.55127967  F      -0.00180447       0.00076631       0.00076342
Ti       2.80632092       0.44830489      29.56882029  F       0.00666437       0.00486200       0.00653441
Ti       3.61173128       2.82477495      30.76804811  F       0.00114511       0.00191186      -0.00657908
Ti       0.33625994       0.24332668      30.71112811  F      -0.00043432       0.01233738      -0.00434411
Ti       5.80331855       4.67766188      30.98246458  F       0.00680372       0.00324498       0.00446317
Ti       5.22226585       0.49854308      31.12531309  F       0.00424621      -0.00019195      -0.00144592
Ti       2.54226065       0.64640989      32.40474201  F      -0.00075943       0.00316944      -0.00667615
Ti       7.01584216       2.36055236      32.35875065  F       0.01211816       0.00726884      -0.00548803
Al       4.03173026      -1.59366140      33.22438385  F       0.00171771       0.00218897      -0.00094426
Ti       4.43262735       2.47698062      33.33332232  F       0.00162838       0.01337476      -0.00565716
Ti       5.98425299       0.30802107      34.02685172  F       0.00918135       0.00127451       0.00138880
Ti       5.05395708       5.13890010      33.91865779  F       0.00452761       0.00650416      -0.00150437
Ti       3.25974954       0.36264253      35.13112713  F       0.00328083       0.00395871      -0.00231124
Ti       6.60750619       2.95288831      35.08518336  F       0.00916093       0.01141054      -0.00336723
Ti       0.58005624       0.76135929      35.82247579  F       0.00155430       0.00732477      -0.00286992
Ti       3.75380014       3.19555051      35.88520651  F       0.00589042       0.01031667      -0.00155906
Ti       5.44804888       0.86216323      36.79798681  F       0.00327135       0.00676281       0.00206879
Ti       5.73456823       5.07402497      36.84604570  F       0.00842806       0.00705784      -0.00043640
Ti       3.04524387       5.22331288      37.76610506  F       0.00349594       0.00815456      -0.00384945
Ti       2.58598260       1.21293409      37.77192265  F       0.00848348       0.01122239      -0.00139559
Ti       4.66813347       3.02020533      38.55759488  F       0.00364226       0.00313953      -0.00038889
Ti       4.27428027      -1.12102887      38.52044004  F       0.00660374       0.00361321       0.00217763
Ti       6.22871977       0.72374219      39.64159406  F       0.00410653       0.00465219       0.00357361
Ti       5.22106580       5.65965712      39.63555407  F       0.00289747       0.00897143       0.00126523
Ti       3.54356923       0.93409140      40.39887645  F      -0.00093750       0.00952652      -0.00498939
Ti       6.79707822       3.44507378      40.36781104  F       0.00625208       0.00789148      -0.00402874
Ti       4.14827174       3.59194006      41.27673568  F       0.00393123      -0.00070273       0.00645973
Ti       5.01738728      -1.24892683      41.29062926  F      -0.00168306       0.00439948       0.00338463
Ti       2.28103552      -1.11196778      42.50534448  F       0.00573493       0.00510014       0.00566033
Ti       5.63081631       1.30412594      42.48084644  F       0.00254589       0.00800268       0.00520126
Ti       3.32279610       5.70478353      42.97364671  F       0.00065186       0.00507928      -0.00078958
Ti       2.83176566       1.64629960      42.99601485  F       0.00359107       0.00351144      -0.00245878
Ti       4.63772286       3.49864594      44.05746139  F       0.01080453       0.01728284       0.02100452
Ti       4.68915190      -0.88485289      44.07177888  F       0.00761092       0.01723579       0.01605173
Ti       2.03995767       3.50409464      45.34328810  F       0.00327784      -0.00150969       0.00711298
Ti       1.56806992      -0.57658836      45.35877699  F      -0.00945724      -0.00193133       0.00647741
Ti       7.00336090       3.72831363      45.60927119  F      -0.01683498       0.00524056      -0.02264558
Ti       3.70787524       1.27613882      45.62433375  F       0.01975926      -0.00711748      -0.01915015
Ti       4.48415056       3.66936909      46.84876870  F       0.01252552       0.00456004      -0.04087630
Ti       4.92418554      -0.93397525      46.86288453  F      -0.00344795       0.01860553      -0.03766706
Ti       5.69690469       1.45050923      48.18188445  F       0.03136785      -0.05842675      -0.02751526
Ti       2.40006506      -0.99580201      48.19692864  F      -0.06509168      -0.00277626      -0.02911405
Ti       3.40482112       5.86575656      48.29217029  F       0.04888993      -0.05402058       0.01455237
Ti       2.94231879       1.78092535      48.30938448  F      -0.06904422       0.02106372       0.01618228
Ti       4.57917379       3.65990478      49.62062376  F      -0.00514437       0.05533128       0.35184936
Ti       4.87541301      -0.86327323      49.63598554  F       0.05468535       0.02870818       0.36154301
Ti       2.08634506       3.57216267      51.00677817  F       0.14060062      -0.02049529       0.62901388
Ti       1.62388660      -0.51192810      51.02312465  F      -0.09178730       0.12273548       0.63355213
Ti       7.06450203       3.78821166      51.00005580  F       0.45843080      -0.06917360       0.20073435
Ti       3.74894925       1.35179948      51.01516504  F      -0.28975121       0.36421793       0.20511978
Ti       4.59158162       3.68145711      52.38568135  F       0.14352884      -0.33006878       0.08752013
Ti       4.89697579      -0.84479625      52.40134405  F      -0.36222050      -0.03299406       0.08495608
Ti       3.43825024       5.90342705      53.70607586  F       0.05776181      -0.09955036      -1.41027858
Ti       2.97473786       1.82071051      53.72272848  F      -0.12172130       0.00020039      -1.41255822
