64
Lattice="5.871999 0.0 0.0 0.0 6.890708 0.0 0.0 0.0 43.401158" Properties=species:S:1:pos:R:3:move_mask:L:1:forces:R:3 job_name=BondOrder-VacuumGB-T1m-V-V-32-d-0.00 top_level=BondOrder-VacuumGB solute=V energy=-483.96361801 stress_kbar_3x3="_JSON [[-19.13864155, 0.00026573, 0.00010266], [0.00026575, -25.09660362, -1.25939162], [0.00010265, -1.25939162, -22.3692845]]" pbc="T T T"
Ti       2.93599950       0.10342264      35.40106595  F      -0.00006993      -0.12144943      -1.00768614
Ti       2.93602886       2.93925217       7.99996185  F      -0.00011200       0.16946977       1.56786895
Ti       0.00002349       0.10319524      35.40106595  F       0.00011165      -0.12076535      -1.00893300
Ti       0.00002349       2.94012729       7.99996185  F       0.00010570       0.16685303       1.56832466
Ti       4.40337682       5.03025129       9.41279975  F      -0.00111683      -0.06662134      -0.30366256
Ti       1.46866329       5.03025129       9.41279975  F       0.00117638      -0.06661629      -0.30371872
Ti       4.40375263       1.31952924      10.02957360  F      -0.00033633       0.07456578      -0.54703427
Ti       1.46829335       1.31952924      10.02957360  F       0.00039309       0.07470842      -0.54698370
Ti       2.93602886       3.41275406      11.21099652  F       0.00002309      -0.20957293      -0.36894021
Ti       0.00000587       3.41381523      11.20869626  F      -0.00010152      -0.21259585      -0.37162618
Ti       2.93603473       6.22844205      11.62213569  F      -0.00000315       0.02419111      -0.04125129
Ti       0.00002936       6.22976507      11.62400194  F      -0.00006086       0.02054772      -0.04244771
Ti       1.46649652       1.49682026      12.84474631  F       0.00287871       0.06380469      -0.04911992
Ti       4.40554946       1.49682715      12.84470291  F      -0.00291192       0.06378950      -0.04883076
Ti       1.46699564       4.43760217      13.44993206  F       0.00451065      -0.11595271       0.02476763
Ti       4.40506795       4.43759528      13.44988866  F      -0.00456714      -0.11576696       0.02511114
Ti       2.93599363       6.59830081      14.60665972  F       0.00020291       0.05483880       0.00166082
Ti       0.00001762       6.59966517      14.61099984  F      -0.00009362       0.05549182      -0.00823593
Ti       2.93602299       2.52793892      15.11497409  F       0.00009732       0.04117200       0.04304237
Ti       0.00002936       2.52416970      15.12018223  F      -0.00008419       0.03837687       0.03143751
Ti       4.40457471       4.69144207      16.28958303  F       0.00636815       0.00932709       0.00214921
Ti       1.46744778       4.69142829      16.28958303  F      -0.00635790       0.00952892       0.00230307
Ti       4.40192056       0.72587407      16.88370148  F       0.00220147      -0.02049273      -0.03756821
Ti       1.47010780       0.72588096      16.88365808  F      -0.00220167      -0.02042219      -0.03702072
Ti       5.87197551       2.87800756      18.10652911  F       0.00019886       0.00890107       0.00633766
Ti       2.93602886       2.89823178      18.07883917  F      -0.00027555      -0.00500510       0.00297977
Ti       5.87198138       5.71330651      18.52344063  F       0.00019575       0.00467895       0.01023621
Ti       2.93603473       5.71633842      18.54974173  F      -0.00021772      -0.00464504       0.00501806
Ti       1.52487006       0.94269709      19.73502736  F      -0.00320901      -0.01456316       0.00032580
Ti       4.34712307       0.94270398      19.73498396  F       0.00327005      -0.01447689       0.00078059
Ti       1.49369562       4.02963780      20.29590052  F       0.00926256      -0.00746348      -0.00953384
Ti       4.37829751       4.02963091      20.29585712  F      -0.00920835      -0.00753182      -0.00917802
V        2.93599950       2.19063187      21.70062240  F      -0.00000820      -0.00805681       0.00090843
Ti       0.00000587       2.07326933      21.70057900  F      -0.00003925       0.00898548      -0.00168718
Ti       2.93599363       6.18102709      21.70062240  F      -0.00003960       0.00478219       0.00164073
Ti       5.87198726       6.09710516      21.70062240  F       0.00004954      -0.00306384       0.00058618
Ti       4.37831513       4.02963780      23.10530088  F      -0.00834369      -0.00461754       0.01034791
Ti       1.49368975       4.02963780      23.10530088  F       0.00833885      -0.00459063       0.01044151
Ti       4.34712307       0.94269709      23.66617404  F       0.00258427      -0.00967158       0.00175361
Ti       1.52487006       0.94270398      23.66617404  F      -0.00255113      -0.00978607       0.00172287
Ti       2.93601712       5.71637287      24.85137287  F      -0.00005505       0.00106934      -0.00574287
Ti       5.87199313       5.71334096      24.87767397  F       0.00010491       0.01058563      -0.01049790
Ti       2.93599950       2.89825246      25.32227543  F       0.00003605      -0.02742895       0.01492628
Ti       0.00000000       2.87802823      25.29458549  F       0.00003561      -0.01528563       0.01218643
Ti       4.40192643       0.72586718      26.51741312  F       0.00089664       0.01401590      -0.01437682
Ti       1.47010780       0.72588096      26.51741312  F      -0.00087532       0.01394755      -0.01432584
Ti       4.40457471       4.69151787      27.11148817  F       0.00621703      -0.00315285      -0.01068299
Ti       1.46745953       4.69151098      27.11153157  F      -0.00617921      -0.00315043      -0.01084454
Ti       0.00002349       2.52418348      28.28097577  F       0.00001845       0.01509253      -0.03540029
Ti       2.93605235       2.52796648      28.28614051  F      -0.00017730       0.01591296      -0.04976810
Ti       0.00001174       6.59969962      28.79015816  F       0.00015175       0.01725078       0.04343399
Ti       2.93604648       6.59831459      28.79449828  F      -0.00017945       0.01504189       0.03579423
Ti       1.46700151       4.43765041      29.95131274  F       0.00219930      -0.01907066       0.03407195
Ti       4.40505034       4.43765730      29.95126934  F      -0.00220779      -0.01931722       0.03430869
Ti       1.46649652       1.49682026      30.55654189  F      -0.00018095      -0.00699598      -0.03774538
Ti       4.40557295       1.49682026      30.55649849  F       0.00021809      -0.00692838      -0.03744503
Ti       2.93603473       6.22847651      31.77910911  F       0.00013081      -0.02044071       0.36184889
Ti       0.00003523       6.22979263      31.77724286  F      -0.00016952      -0.02054939       0.36135277
Ti       2.93600537       3.41279540      32.19024828  F       0.00019657       0.23816614      -0.58078430
Ti       0.00001762       3.41385657      32.19254854  F      -0.00021419       0.23181828      -0.57955595
Ti       4.40375263       1.31954991      33.37158440  F       0.00091348      -0.50100686       0.66031959
Ti       1.46826986       1.31957058      33.37158440  F      -0.00089672      -0.50103232       0.66046544
Ti       4.40339443       5.03027197      33.98827145  F       0.00125923       0.42063172       0.29604708
Ti       1.46866329       5.03025818      33.98827145  F      -0.00130187       0.42054118       0.29612831
