64
Lattice="5.872 0.0 0.0 0.0 6.890708 0.0 0.0 0.0 43.394398" Properties=species:S:1:pos:R:3:move_mask:L:1:forces:R:3 job_name=BondOrder-VacuumGB-T1g-Al-Al-44-d-5.32 top_level=BondOrder-VacuumGB solute=Al energy=-482.10185759 stress_kbar_3x3="_JSON [[-18.03988256, 0.00047875, 0.00046854], [0.0004787, -28.07301517, -1.21552604], [0.00046854, -1.21552604, -16.52604045]]" pbc="T T T"
Ti       4.40789314       5.21034684      34.65376817  F      -0.00293676      -0.30873229      -0.45583667
Ti       1.46409512       5.21029860      34.65376817  F       0.00292840      -0.30836736      -0.45589321
Ti       5.87191779       3.18332105       8.53893267  F       0.00026075       0.17441820       0.97108917
Ti       2.93609395       3.18941243       8.55008503  F      -0.00037442       0.16800193       0.91504515
Ti       0.00007634       6.63729532       9.16164228  F      -0.00046377      -0.21140894       0.11339424
Ti       2.93590605       6.63495937       9.16363842  F       0.00038753      -0.20155851       0.11790404
Ti       4.40417029       1.76869315      10.45123700  F       0.00944264       0.03321234      -0.52084293
Ti       1.46775925       1.76875516      10.45128039  F      -0.00935569       0.03325236      -0.52126461
Ti       1.46781210       4.59869314      10.66369597  F      -0.00171158       0.10700894      -0.35874706
Ti       4.40418203       4.59867247      10.66369597  F       0.00170733       0.10719017      -0.35863591
Ti       5.87196477       6.72364278      11.97555202  F       0.00002974      -0.09570770       0.02129691
Ti       2.93594128       6.72457992      11.97876320  F       0.00016666      -0.10029723       0.01463576
Ti       2.93598826       2.87875175      12.58754321  F      -0.00004957      -0.06941282       0.09635680
Ti       5.87194128       2.87706353      12.58420184  F       0.00003756      -0.06043368       0.10629606
Ti       4.40414680       5.00641633      13.74387373  F      -0.00047129       0.06308300      -0.08683124
Ti       1.46776512       5.00643701      13.74383034  F       0.00053535       0.06293857      -0.08655644
Ti       4.40376512       0.93337396      14.22051780  F       0.00034850       0.01446183       0.03343851
Ti       1.46814680       0.93336707      14.22051780  F      -0.00046595       0.01466796       0.03340664
Ti       2.93595890       3.09135077      15.40475092  F      -0.00003230      -0.02661800      -0.02902559
Ti       5.87194128       3.09396235      15.39971717  F       0.00015685      -0.03078565      -0.03601933
Ti       2.93595302       6.02543491      16.00337664  F       0.00009406       0.00486123      -0.03624862
Ti       5.87194128       6.02654431      16.00055601  F       0.00018444       0.00425565      -0.05625519
Ti       4.40840400       1.29516369      17.18695885  F      -0.00330957       0.00058306       0.00094983
Ti       1.46360187       1.29517748      17.18695885  F       0.00327794       0.00042959       0.00093829
Ti       4.40569701       4.11007993      17.65969742  F      -0.00750823       0.01344731       0.03029400
Ti       1.46627363       4.11007304      17.65969742  F       0.00749802       0.01351496       0.03024666
Ti       2.93603523       6.24003222      18.82205977  F       0.00006091      -0.00543823      -0.00681893
Ti       0.00005872       6.24457320      18.81359786  F      -0.00006496      -0.00203251       0.00249320
Ti       2.93604110       2.39359078      19.41365559  F       0.00006686       0.00354505      -0.01958726
Ti       0.00003523       2.39483111      19.44507314  F      -0.00007340      -0.00294066      -0.00697961
Ti       1.45980269       4.53020640      20.74486554  F       0.00075108      -0.00656892      -0.00085072
Ti       4.41239696       4.53020640      20.74490894  F      -0.00076712      -0.00670256      -0.00096958
Ti       4.42554437       0.45522084      20.95372278  F       0.00018758       0.00624481      -0.00289509
Ti       1.44658482       0.45526908      20.95367938  F      -0.00022601       0.00600906      -0.00266354
Ti       0.00005872       2.48383150      22.26032810  F       0.00000088      -0.00576686       0.00284960
Ti       2.93611157       2.49374723      22.19679870  F       0.00001149       0.00707779       0.03224953
Ti       0.00009395       5.92225344      22.87830772  F      -0.00001686      -0.00570515       0.01034485
Ti       2.93605285       5.91618962      22.85964813  F      -0.00005761      -0.00000501      -0.00055854
Ti       4.35451666       3.88081229      24.15644632  F       0.00633641       0.00710962       0.00636036
Ti       1.51765950       3.88079851      24.15644632  F      -0.00656295       0.00726635       0.00607867
Ti       4.38291952       1.10488368      24.37975390  F       0.00631847      -0.00886545       0.00579154
Ti       1.48918030       1.10487679      24.37975390  F      -0.00623321      -0.00884995       0.00583155
Ti       0.00005285       5.87003566      25.67620493  F      -0.00014377       0.00264144       0.01259749
Ti       2.93601174       5.73404754      25.67637851  F       0.00008690       0.02056364      -0.00964559
Al       2.93603523       2.83286653      26.29197144  F       0.00008882       0.02509879       0.01027501
Ti       0.00005872       2.84048765      26.33606015  F      -0.00003588      -0.00309121      -0.00934777
Ti       4.38065293       0.68457806      27.43875519  F       0.00921927       0.00352036       0.00582266
Ti       1.49138818       0.68457806      27.43875519  F      -0.00923873       0.00335376       0.00571090
Ti       1.45863416       4.72799728      27.92164805  F      -0.00940927      -0.03153799      -0.01258342
Ti       4.41342456       4.72801106      27.92160466  F       0.00927232      -0.03155065      -0.01237080
Ti       2.93597651       2.55406848      29.08557260  F       0.00010424       0.00859942      -0.02484405
Ti       0.00000587       2.57314196      29.17453111  F      -0.00002224      -0.01394918      -0.00043883
Ti       2.93599413       6.56279988      29.66566891  F      -0.00001279       0.02977917       0.03904404
Ti       0.00001174       6.52417746      29.68636804  F       0.00003417       0.02895512       0.01462032
Ti       4.38533878       4.37606815      30.88448737  F       0.01169850       0.01704669       0.02832047
Ti       1.48664360       4.37606126      30.88448737  F      -0.01164393       0.01700240       0.02840708
Ti       4.38546797       1.54393203      31.36286721  F      -0.01808245      -0.01749560      -0.02948704
Ti       1.48649680       1.54391825      31.36286721  F       0.01813848      -0.01745295      -0.02926264
Ti       2.93597651       6.31170937      32.51589976  F      -0.00027562      -0.05204461       0.73766430
Ti       0.00003523       6.31443809      32.51906755  F       0.00022750      -0.09536166       0.75262491
Ti       5.87196477       3.27290714      33.11048980  F       0.00054837       0.30420846       0.20521876
Ti       2.93602349       3.27756526      33.13066820  F      -0.00052338       0.29937975       0.26273206
Ti       1.46787669       1.14964572      34.43453967  F      -0.01427427       0.05767547      -0.74451425
Ti       4.40417029       1.14963194      34.43453967  F       0.01413554       0.05827710      -0.74435490
