64
Lattice="5.088765 0.0 0.0 0.0 9.739025 0.0 0.0 0.0 38.303587" Properties=species:S:1:pos:R:3:move_mask:L:1:forces:R:3 job_name=BondOrder-VacuumGB-T2-V-V-38-d-2.12 top_level=BondOrder-VacuumGB solute=V energy=-481.53233111 stress_kbar_3x3="_JSON [[-19.71443971, -0.31139027, 0.43855378], [-0.31139026, -20.02919181, -2.15125666], [0.4385538, -2.15125665, -22.60056065]]" pbc="T T T"
Ti       2.54697777       9.27402551      29.92996324  F      -0.84372017       0.02518249      -0.92341473
Ti       0.00096178       4.40352937      29.93245297  F      -0.86291591       0.03077479      -0.93638450
Ti       1.26893953       1.88659523       8.25488264  F      -0.83267169       0.03986814       1.11248206
Ti       3.81434996       6.75362428       8.26311791  F      -0.83160264       0.03914022       1.10413248
Ti       2.72867721       4.07251939       9.04282573  F       0.76215443      -0.57210672       0.55443768
Ti       0.19143425       8.93967505       9.04378332  F       0.74761840      -0.56419564       0.55076389
Ti       1.04225540       6.21566001       9.77909728  F       0.25682824       0.17478739      -0.15356022
Ti       3.58521814       1.35101703       9.77028745  F       0.24926522       0.16737353      -0.16192985
Ti       0.22073536       3.51128860      10.41321316  F      -0.13382314       0.31799204      -0.37479432
Ti       2.76806425       8.37980771      10.41156611  F      -0.12726430       0.31600354      -0.36600871
Ti       1.10979858       0.89754854      11.15400453  F      -0.10290873       0.09517361      -0.47823429
Ti       3.65525990       5.76184093      11.16335061  F      -0.10251877       0.09961930      -0.46578671
Ti       2.74951062       3.14075765      11.83695749  F       0.11451187       0.00842759      -0.18217615
Ti       0.21071558       8.00917938      11.83469758  F       0.11361194       0.00848217      -0.18783757
Ti       3.60963403       0.47681292      12.51179009  F      -0.05945460      -0.00635987      -0.13323875
Ti       1.06397425       5.34240060      12.52841384  F      -0.06412091      -0.00698882      -0.13168865
Ti       2.76545881       7.56294699      13.21646118  F      -0.01703795      -0.01624162      -0.02544280
Ti       0.21260860       2.69821635      13.21860618  F      -0.01757528      -0.01600912      -0.01932915
Ti       3.60266242       4.89684994      13.98272443  F       0.04475069       0.00632085      -0.00394171
Ti       1.06004573       0.04009557      13.95866978  F       0.04274366      -0.00174772       0.00265897
Ti       0.21508174       7.11838972      14.62986354  F      -0.00574541       0.02709317      -0.03957886
Ti       2.74865062       2.25138989      14.63250648  F      -0.00213331       0.01608285      -0.02543824
Ti       1.08469570       4.46099936      15.33771382  F      -0.00943646       0.01201866      -0.00357687
Ti       3.63970354       9.33986132      15.31109283  F      -0.01639353       0.01740329      -0.01170067
Ti       0.15989409       1.89159135      16.03579670  F       0.00032772       0.01535548       0.00623469
Ti       2.72228064       6.74306717      16.02717839  F      -0.00298913       0.00725896       0.00199147
Ti       1.02132531       8.94877129      16.71779206  F      -0.01249200       0.00164319       0.01018992
Ti       3.53434067       4.05387890      16.77555387  F      -0.01949484      -0.00348956       0.00796420
Ti       2.73965877       1.35455229      17.37688189  F       0.00952645      -0.00024983       0.01738627
Ti       0.23360485       6.21570871      17.36133063  F       0.00770847       0.00982865       0.02193563
Ti       3.74545826       8.34308185      18.18554721  F       0.00901913      -0.03060833       0.01153843
Ti       1.13211790       3.48450628      18.30566726  F       0.01215292      -0.03265972      -0.00018319
Ti       5.02072821       0.90411265      18.88512393  F      -0.01190660      -0.00752971      -0.00707248
Ti       2.51487784       5.75702011      18.90044536  F      -0.01397836      -0.00203591      -0.00759325
Ti       3.66304062       3.32821440      19.50974052  F      -0.01322051      -0.01020045       0.00465690
Ti       1.22630077       8.18335210      19.39295288  F      -0.00918102      -0.00359824      -0.00376352
Ti       2.44293288       1.03155753      20.13680854  F      -0.00099773       0.01726943       0.00866455
Ti       5.08491789       5.88205945      20.11846113  F      -0.00626224      -0.00822928      -0.00588140
V        1.47146220       3.87872253      20.99737523  F       0.00993714       0.03156043      -0.01543434
Ti       4.08308255       8.70615270      20.93467226  F       0.00867643       0.03010604      -0.02218122
Ti       4.89809406       1.74306148      21.55136001  F       0.00406081      -0.00175172       0.00249118
Ti       2.29730769       6.56737516      21.57081823  F       0.00401982       0.00394289      -0.00418130
Ti       1.46242455       9.26477344      22.29598174  F      -0.00490259      -0.00475068       0.01651080
Ti       4.01659275       4.43038960      22.26112548  F      -0.00746484      -0.01009181       0.01720547
Ti       4.90234318       7.03436141      23.01463364  F       0.00363674      -0.02418711       0.01170812
Ti       2.35598624       2.17416916      22.90761342  F      -0.00544435      -0.00581105       0.01078113
Ti       1.49213785       4.81685359      23.64066747  F      -0.01108199       0.03479581       0.02100519
Ti       4.02896353       9.71488196      23.64166336  F       0.00761118       0.01265941       0.02864066
Ti       2.36303927       7.49476408      24.36843562  F      -0.00246878      -0.03486356      -0.04495913
Ti       4.88452233       2.64201244      24.34066552  F       0.00421906      -0.03910604      -0.04459205
Ti       4.03166567       5.27990527      25.08693431  F       0.00378990       0.04027343       0.01691355
Ti       1.49081986       0.41832034      25.07142135  F      -0.01044310       0.03301222       0.01913582
Ti       4.89364139       7.96576281      25.75575324  F      -0.02101681      -0.09861650       0.02359087
Ti       2.34888741       3.08449530      25.74054671  F      -0.01422408      -0.09228403       0.02730194
Ti       1.45149388       5.72149215      26.43261592  F       0.05257340       0.01657140       0.19012407
Ti       4.00220172       0.85741402      26.42913030  F       0.05389995       0.02004186       0.19215678
Ti       2.32294489       8.36421554      27.18091480  F      -0.05367725       0.25941787       0.44818184
Ti       4.86864538       3.49345644      27.17018980  F      -0.06189906       0.24739394       0.43779988
Ti       1.53419140       1.36007432      27.81200470  F      -0.08151129       0.25343462       0.69010046
Ti       4.07568349       6.22930439      27.82012506  F      -0.07996691       0.24616071       0.68857248
Ti       4.94762810       8.98396813      28.56398072  F       0.12992744      -0.12946899      -0.11434988
Ti       2.39743932       4.10927447      28.56061000  F       0.15966569      -0.12544313      -0.12491253
Ti       3.81531683       1.91091357      29.33583630  F       0.83184628      -0.41587354      -0.61727274
Ti       1.27094450       6.77804001      29.34238621  F       0.82986332      -0.41797122      -0.62081761
