100
Lattice="4.4265 -2.555641 0.0 3.767997 6.526363 -0.031456 0.0 0.0 61.781652" Properties=species:S:1:pos:R:3:move_mask:L:1:forces:R:3 job_name=BondOrder-VacuumGB-CSL13-V-V-54-d-2.65 top_level=BondOrder-VacuumGB solute=V energy=-761.20804994 stress_kbar_3x3="_JSON [[-36.05714269, -1.88038413, -0.09813872], [-1.8803841, -39.20032243, 0.02410232], [-0.09813874, 0.02410232, -24.64574038]]" pbc="T T T"
Ti       2.48025124      -0.89229575       8.02144693  F       0.11647304      -0.02232070       1.75547609
Ti       5.77325573       1.55724783       8.00565768  F      -0.07715177       0.09165269       1.75593860
Ti       4.99557465      -0.80085957       9.38352722  F       0.42105265      -0.00556480      -0.11715698
Ti       4.59452174       3.78152739       9.36779948  F      -0.21501811       0.36213887      -0.11714252
Ti       7.10598137       3.86764114      10.62444579  F      -0.14434230      -0.05713300      -0.98407510
Ti       3.81428637       1.41717620      10.64029742  F       0.02301693      -0.15191763      -0.98337647
Ti       1.66789476      -0.43754378      10.87902346  F       0.30449887      -0.25421359      -0.12356569
Ti       2.14655260       3.63709855      10.86335692  F      -0.37140316       0.13799605      -0.12435921
Ti       4.73514064       3.65644036      12.16518425  F       0.04026077      -0.12834393      -0.33151095
Ti       4.81700533      -0.74157617      12.18078812  F      -0.13304829      -0.02971420      -0.33037478
Ti       3.44718256       5.87271274      13.24968907  F      -0.08820455       0.03654313       0.04572017
Ti       2.95350468       1.80704678      13.26541628  F       0.07703380      -0.05804956       0.04619222
Ti       2.40834271      -0.95220772      13.75873422  F       0.04595330      -0.04108981       0.00834369
Ti       5.75659613       1.46547268      13.74294485  F      -0.05818970       0.01847422       0.00841005
Ti       4.27771943       3.76394342      14.95438872  F      -0.00191596       0.02081730      -0.02831631
Ti       5.13858483      -1.08381198      14.96993075  F       0.01760070       0.00941807      -0.02737774
Ti       6.92513618       3.59424537      15.85130364  F      -0.00080563      -0.00325111      -0.01451536
Ti       3.66733346       1.12405608      15.86727940  F      -0.00236585      -0.00364687      -0.01461909
Ti       6.37494627       0.88737228      16.61238975  F      -0.00512568      -0.00138376      -0.00131280
Ti       1.59811263      -0.70612605      16.62799598  F       0.00233154      -0.00486662      -0.00330670
Ti       4.78869875       3.17976799      17.68568877  F      -0.00419589       0.00789241       0.00253244
Ti       4.37782818      -0.93354145      17.70172430  F       0.00934398       0.00090691       0.00316534
Ti       3.17369667       5.41026605      18.48131591  F      -0.00180439      -0.00412409       0.00279990
Ti       2.68927398       1.33967430      18.49815368  F      -0.00263284      -0.00237544       0.00206573
Ti       5.89607956       5.19806074      19.43617922  F      -0.00130181      -0.00595210      -0.00273254
Ti       5.57072930       1.03379239      19.45252937  F      -0.00220717      -0.00362861      -0.00272218
Ti       0.58731839       0.91243301      20.37687221  F       0.00655118       0.00249142       0.00296863
Ti       3.85799915       3.37768458      20.35897219  F      -0.00030115       0.00210488       0.00590497
Ti       3.30389812       0.65181104      21.18679755  F      -0.00009280       0.00390294       0.01344399
Ti       6.69980124       3.04334705      21.17038542  F      -0.00117696       0.00119470       0.01183186
Ti       5.09289778       5.35839781      22.27947902  F      -0.00071728       0.00087303       0.01001264
Ti       6.11706621       0.41763853      22.29421326  F       0.00081738       0.00262626       0.00777412
Ti       4.54082064       2.63713378      22.97642995  F      -0.00060962       0.00032298       0.00637563
Ti       4.03671927      -1.41650120      22.99670727  F      -0.00046994      -0.00312331       0.01045134
Ti       7.16578324       2.51021207      23.91926443  F       0.00123024       0.00343842      -0.00768959
Ti       2.60784903       0.78880927      23.93518507  F       0.00454041      -0.00152858      -0.00434172
Ti       5.74493748       4.79238212      25.15949815  F       0.00424516      -0.00035151      -0.00476761
Ti       5.30684005       0.70092690      25.17643822  F      -0.00444269      -0.00300499      -0.00389839
Ti       3.61861962       2.94157919      25.58258636  F       0.00500203       0.00405379      -0.02191516
Ti       0.33798168       0.48315542      25.60289196  F      -0.00049768       0.00874647      -0.01490808
Ti       2.88840813       0.50330610      26.73193094  F      -0.00207868       0.00072695      -0.01267892
Ti       6.79722695       2.60521035      26.72173526  F       0.00626340       0.00763749      -0.01104903
Ti       4.93223081       5.19656987      28.03542199  F       0.00691736       0.00499604       0.01343408
Ti       1.64537146       2.75024841      28.04667670  F       0.00486133      -0.00484068       0.00440694
Ti       4.39613844       2.41155144      28.21273920  F      -0.00182486       0.00918308       0.01395846
Ti       3.92639804      -1.66148677      28.24339427  F       0.00380766       0.00124491       0.01660807
Ti       6.89855208       2.51345191      29.50759018  F       0.01002190       0.01156437       0.04549517
Ti       2.74706189       0.54846048      29.51816809  F      -0.00833426      -0.00676573      -0.00191669
Ti       3.58253011       2.86063903      30.87702403  F       0.01188725       0.03656781       0.00363484
Ti       0.29498038       0.41424626      30.97335377  F      -0.01312186      -0.00277820      -0.01446050
Ti       5.73547695       4.71760471      30.89572034  F      -0.00697393      -0.02872102      -0.00630084
Ti       5.25242465       0.64788381      30.89982508  F       0.01508364       0.00721952       0.00354977
Ti       2.77223678       0.52062937      32.29876118  F      -0.00177387       0.00946846      -0.01421451
Ti       6.89914433       2.52540564      32.29840829  F       0.00282246      -0.00804424      -0.02285892
V        3.89248059      -1.70429655      33.55257895  F      -0.00433475      -0.01287248      -0.01178883
Ti       4.34425357       2.43854857      33.52053519  F       0.00307214       0.02795504      -0.01405925
Ti       5.95907919       0.11935034      33.75259615  F       0.01654128       0.01221432      -0.00312656
Ti       4.94053633       5.22392789      33.72051516  F      -0.01152625      -0.01501142       0.00186176
Ti       2.97501476       0.45426964      35.06960851  F      -0.00212862       0.00002670       0.02223176
Ti       6.71810278       2.65294633      35.04260429  F       0.00420049      -0.00935177       0.01008018
Ti       0.36330883       0.53652009      36.07389483  F       0.00578266      -0.00135496       0.01206913
Ti       3.61430438       2.98091409      36.09806103  F       0.00755151       0.02369258      -0.00692708
Ti       5.33713775       0.72756143      36.67322633  F       0.00203761       0.00952616       0.00769103
Ti       5.71538232       4.83535111      36.60013082  F      -0.00787781       0.00084117       0.01054173
Ti       7.25938966       2.52356395      37.81692698  F       0.00701207       0.01017420      -0.00704743
Ti       2.56378509       0.87318700      37.83609085  F      -0.00883220      -0.00578167       0.00766276
Ti       4.58844525       2.73405629      38.69069941  F       0.00896696       0.01087964      -0.00416922
Ti       4.06665704      -1.33237481      38.69048661  F       0.00258206      -0.00130651      -0.00762455
Ti       6.12607249       0.49675066      39.49608275  F       0.00058799      -0.00582917      -0.00342086
Ti       5.14481202       5.41821046      39.47842499  F       0.00538151       0.00290518      -0.00629696
Ti       3.38228508       0.70800880      40.54948014  F       0.00155082       0.00651466      -0.00698786
Ti       6.71188130       3.14218672      40.53675915  F       0.00458211       0.01688219      -0.00850306
Ti       3.92134590       3.45442638      41.32608141  F       0.00330179       0.00365171       0.00162825
Ti       0.62331955       1.01798941      41.33602628  F       0.00014323       0.00528268       0.00271633
Ti       2.17002433      -1.24267432      42.35573389  F       0.00349724      -0.00648681      -0.00431510
Ti       5.61869536       1.11600312      42.33821834  F      -0.00740970      -0.00473751       0.00237545
Ti       3.24144875       5.49761288      43.18876237  F       0.00408715       0.00523638       0.00535617
Ti       2.73032194       1.44043734      43.20511312  F       0.00244675       0.00399120       0.00249156
Ti       4.79025200       3.28867075      44.02577563  F       0.00293857       0.01035511       0.00763774
Ti       4.46879084      -0.87787778      44.03983999  F       0.00654756       0.00764680       0.00301807
Ti       6.42515383       0.94141767      45.18789531  F      -0.00261831       0.00369999      -0.01079703
Ti       1.62034313      -0.63456191      45.20405264  F       0.00298478       0.00043173      -0.00936180
Ti       6.97883908       3.67858257      45.78817468  F      -0.00979174      -0.00788265      -0.01583540
Ti       3.71485184       1.21366947      45.80500921  F      -0.00359685      -0.01407505      -0.01490234
Ti       4.38388866       3.76611764      46.78690835  F       0.02158728       0.00635831      -0.02170026
Ti       5.08695640      -0.99056804      46.80214159  F      -0.00454675       0.02248662      -0.02002708
Ti       5.74917588       1.49738503      48.07015181  F       0.04477786      -0.03082159      -0.00480573
Ti       2.43981428      -0.94357624      48.08606773  F      -0.04542838       0.02822992      -0.00672174
Ti       3.46182377       5.90879553      48.39111708  F      -0.01461880      -0.07626080       0.02301579
Ti       2.97769400       1.83714707      48.40678421  F      -0.06123169      -0.05103925       0.02260889
Ti       4.68301295       3.69515109      49.58963593  F       0.00788131       0.03249241       0.38527268
Ti       4.87662958      -0.76797717      49.60536550  F       0.02692096       0.02735768       0.38283465
Ti       2.14658948       3.63553704      50.93370634  F       0.16382884      -0.02367300       0.49408739
Ti       1.66690140      -0.43846698      50.94949628  F      -0.10191953       0.13022595       0.49584119
Ti       7.10981600       3.86710667      51.04403525  F       0.48485131      -0.14290843       0.16929489
Ti       3.81228884       1.41998282      51.05982519  F      -0.36634098       0.34989302       0.16686247
Ti       4.62037075       3.76381887      52.37321434  F       0.14707093      -0.23523404       0.14635956
Ti       4.96740781      -0.78762567      52.38906653  F      -0.27768139       0.00926373       0.14528355
Ti       3.48792746       5.97391180      53.73222172  F       0.04945458      -0.08971604      -1.39693874
Ti       3.02107612       1.89232245      53.74795050  F      -0.10177391      -0.00134095      -1.39649643
