64
Lattice="5.088765 0.0 0.0 0.0 9.739025 0.0 0.0 0.0 38.303587" Properties=species:S:1:pos:R:3:move_mask:L:1:forces:R:3 job_name=BondOrder-VacuumGB-T2-Al-Al-33-d-0.00 top_level=BondOrder-VacuumGB solute=Al energy=-477.37045394 stress_kbar_3x3="_JSON [[-19.74475804, -0.60986081, 3.314853], [-0.6098608, -19.16461227, -0.00227156], [3.31485298, -0.00227154, -19.33339974]]" pbc="T T T"
Ti       2.54457078       9.27838860       8.34868813  F       0.81289585       0.02142375       0.94891542
Ti       0.00019846       4.41283988       8.34868813  F       0.81997912       0.01365526       0.94360674
Ti       1.26647148       1.90677449       8.94338962  F      -0.85079486      -0.40490806       0.63432041
Ti       3.80864545       6.77681290       8.94710507  F      -0.84922559      -0.38557334       0.63802247
Ti       2.68437951       4.10627485       9.73853378  F      -0.18980615      -0.11290468       0.07308958
Ti       0.13736103       8.97282669       9.73776771  F      -0.18888675      -0.11328974       0.07729213
Ti       0.99068586       6.23421286      10.48238944  F       0.08153415       0.24920948      -0.68848810
Ti       3.53605049       1.36420367      10.48166167  F       0.09272046       0.25300796      -0.68187276
Ti       0.18977531       3.50628274      11.10118389  F       0.06638384       0.27998883      -0.45468255
Ti       2.73101805       8.37353578      11.10823175  F       0.06675677       0.27997548      -0.43696743
Ti       1.06689011       0.87829449      11.84354571  F      -0.05063619       0.03568713      -0.19495656
Ti       3.60608716       5.75035862      11.85162776  F      -0.05098148       0.02605699      -0.19352774
Ti       2.69981883       3.12804822      12.54856153  F       0.01951025      -0.08858169      -0.06326434
Ti       0.15543124       7.99321712      12.55001707  F       0.02331412      -0.08943843      -0.05293802
Ti       3.53224918       0.44363207      13.19340242  F       0.00524638       0.04576024      -0.02414138
Ti       0.98452336       5.32007875      13.19252143  F       0.00748802       0.04789116      -0.02766839
Ti       2.68241016       7.51459273      13.93258504  F      -0.00244486      -0.01707656       0.02277819
Ti       0.14001737       2.64497310      13.90178896  F      -0.00101388      -0.03946251       0.01970814
Ti       3.55104199       4.87929048      14.67839418  F       0.00746533       0.00575760      -0.02726846
Ti       0.99997794       0.01892293      14.66422185  F       0.00883033       0.01378668      -0.02723726
Ti       0.12340255       7.08895839      15.32763998  F       0.00739997      -0.00318049       0.00653211
Ti       2.68483750       2.20538273      15.31488489  F       0.00458162      -0.01428752       0.00487792
Ti       1.04290168       4.47185837      15.91019924  F       0.00400512       0.00582238      -0.00706230
Ti       3.58772181       9.34227660      15.96497337  F       0.00126664       0.00264062      -0.01108022
Ti       0.15944118       1.89901248      16.74571538  F      -0.01328076      -0.01348573      -0.00172134
Ti       2.67428849       6.73290937      16.77497932  F      -0.02163871      -0.01448642      -0.00296117
Ti       0.87475870       8.87589417      17.34646884  F       0.01017521       0.00410002       0.00970830
Ti       3.39054743       3.98500451      17.36604197  F       0.01428844       0.01591097       0.00973410
Ti       2.70110120       1.14502691      18.12606174  F      -0.01088851      -0.00148839       0.00702431
Ti       0.19353082       5.98885760      18.10522459  F      -0.00584029       0.00250988       0.00047668
Ti       3.81444665       8.15756316      18.99440406  F       0.00171574       0.00693323      -0.00533854
Ti       1.24999406       3.28934595      18.97804843  F       0.00814725      -0.00538134       0.00532033
Ti       0.00001527       0.81872088      19.50031784  F       0.00517895      -0.00170536      -0.00350803
Al       2.54441812       5.69782632      19.50035614  F       0.00464204      -0.00980776      -0.00146013
Ti       3.83886763       3.28933622      20.02247234  F      -0.00350436      -0.01582005      -0.00316887
Ti       1.27442013       8.15753395      20.00611670  F       0.00790935      -0.00741653       0.00096466
Ti       2.38779611       1.14492952      20.87445902  F      -0.00017363       0.01071819      -0.01672589
Ti       4.89539193       5.98880890      20.89533448  F       0.00307989       0.01834539      -0.00644899
Ti       1.69832443       3.98492660      21.63459371  F      -0.01410371       0.00199696      -0.01493928
Ti       4.21411316       8.87578704      21.65412854  F      -0.00728234      -0.00807388      -0.00554847
Ti       4.92935944       1.89896379      22.25484369  F       0.00963286       0.00300328       0.01232414
Ti       2.41455284       6.73287041      22.22561805  F       0.00878358      -0.00879374       0.01982963
Ti       1.50111952       9.34226686      23.03558570  F       0.01481869      -0.01323604       0.00828890
Ti       4.04599054       4.47181941      23.09039814  F       0.01686713      -0.01248981       0.00112324
Ti       4.96552529       7.08889021      23.67299570  F      -0.01278397       0.03002753       0.04196424
Ti       2.40405472       2.20534378      23.68571249  F      -0.00680658       0.01308498       0.04565690
Ti       1.53779934       4.87917361      24.32216489  F      -0.03158291      -0.00320286       0.01569020
Ti       4.08886339       0.01879632      24.33633721  F      -0.03307346      -0.01448483       0.01006562
Ti       2.40647188       7.51445639      25.06789742  F       0.01118255      -0.01553011       0.01836604
Ti       4.94885450       2.64484650      25.09873181  F      -0.00080979      -0.01476349       0.03520106
Ti       4.10437394       5.31994241      25.80807594  F       0.05146852      -0.00146954       0.15676372
Ti       1.55665830       0.44346650      25.80715665  F       0.05084247      -0.00524262       0.15190068
Ti       4.93339992       7.99307103      26.45058031  F      -0.11835070      -0.00381975       0.18087915
Ti       2.38900724       3.12791188      26.45207415  F      -0.11720371      -0.01314799       0.19193811
Ti       1.48282541       5.75031966      27.14893130  F       0.10887891       0.14863253       0.43196521
Ti       4.02201228       0.87830423      27.15705167  F       0.12645138       0.16656474       0.43550169
Ti       2.35803701       8.37326309      27.89228902  F       0.13912182       0.30602242       0.35955642
Ti       4.89932046       3.50603926      27.89937518  F       0.14209827       0.29859287       0.36357234
Ti       1.55277557       1.36372645      28.51901231  F      -0.20645623       0.15886818       0.13154071
Ti       4.09815547       6.23385251      28.51832284  F      -0.19655172       0.15819579       0.13715086
Ti       4.95116988       8.97214495      29.26252324  F      -0.73497620      -0.60826747      -0.55928795
Ti       2.40416667       4.10564181      29.26179547  F      -0.73389106      -0.60122789      -0.54846899
Ti       3.82268536       1.90650179      30.05713115  F       0.84670131       0.01918983      -1.04732379
Ti       1.28048594       6.77650125      30.05345400  F       0.84162606       0.01868428      -1.04359340
