64
Lattice="5.871999 0.0 0.0 0.0 6.890708 0.0 0.0 0.0 43.401158" Properties=species:S:1:pos:R:3:move_mask:L:1:forces:R:3 job_name=BondOrder-VacuumGB-T1m-Al-Al-40-d-3.20 top_level=BondOrder-VacuumGB solute=Al energy=-480.04562982 stress_kbar_3x3="_JSON [[-18.0683244, 0.00059893, 0.0012759], [0.00059895, -24.48266268, 0.8611645], [0.00127589, 0.86116447, -22.68449894]]" pbc="T T T"
Ti       2.93604060       0.10440112       8.42945971  F       0.00031432       0.31641665       0.63269894
Ti       2.93601712       2.94136073      35.82756913  F      -0.00011894       0.06189832      -2.04001307
Ti       0.00003523       0.10150013       8.43180337  F      -0.00030616      -0.43577541       0.48288898
Ti       0.00001174       2.94231164       8.42768026  F      -0.00015165      -0.51243353       1.33573039
Ti       4.40076378       5.02851484       9.83917272  F       0.16770692       0.59331834      -0.03487017
Ti       1.47129981       5.02850105       9.83917272  F      -0.16763973       0.59315359      -0.03473498
Ti       4.40411669       1.32375324      10.45568617  F       0.29420183      -0.25671462      -0.79056893
Ti       1.46795277       1.32377391      10.45572957  F      -0.29421411      -0.25684698      -0.79107147
Ti       2.93604648       3.41323641      11.63424462  F      -0.00008832      -0.03084527       0.41281347
Ti       0.00002936       3.41227860      11.63515604  F      -0.00008184       0.00293765      -0.26330766
Ti       2.93604648       6.23119834      12.04755384  F      -0.00005024      -0.13052932      -0.35212087
Ti       0.00001762       6.23153598      12.04607821  F       0.00010052       0.07499771      -0.22984668
Ti       1.46795865       1.49238954      13.26443551  F       0.06740394       0.00897393       0.02202930
Ti       4.40410495       1.49240332      13.26443551  F      -0.06742157       0.00883334       0.02140733
Ti       1.46921525       4.44083391      13.86732100  F       0.04628155      -0.00028738       0.00347414
Ti       4.40285421       4.44084080      13.86732100  F      -0.04631933      -0.00045003       0.00360604
Ti       2.93601124       6.59493125      15.02361465  F       0.00000494       0.01512049      -0.01041841
Ti       0.00000587       6.59294673      15.02535070  F       0.00008214      -0.01382378       0.02187388
Ti       2.93601124       2.52229543      15.53179881  F       0.00011814       0.00049699       0.05599951
Ti       0.00001762       2.52122048      15.52797951  F      -0.00004493       0.01502561       0.01123100
Ti       4.40317130       4.67454606      16.69343080  F       0.00529461       0.00027817       0.00621689
Ti       1.46883357       4.67455295      16.69343080  F      -0.00529453       0.00013592       0.00594366
Ti       4.40115133       0.73514896      17.29796553  F      -0.00004865       0.02551311       0.00094729
Ti       1.47086529       0.73514207      17.29800893  F       0.00002755       0.02571286       0.00050744
Ti       5.87198138       2.88154938      18.51289415  F      -0.00012449      -0.01754778      -0.00522666
Ti       2.93599363       2.88921185      18.51923072  F       0.00014169      -0.00880804       0.01584695
Ti       5.87198726       5.70840721      18.92707140  F      -0.00018684       0.01441532       0.00888261
Ti       2.93599950       5.70862082      18.94339023  F       0.00021957       0.00685448      -0.00862310
Ti       1.47772378       0.90776120      20.10415421  F       0.00492609      -0.00527449       0.00072741
Ti       4.39424586       0.90775431      20.10419761  F      -0.00491846      -0.00528612       0.00018852
Ti       1.46124108       4.10455358      20.73407861  F      -0.00743237      -0.00473156      -0.00675368
Ti       4.41073443       4.10455358      20.73407861  F       0.00741143      -0.00482663      -0.00652909
Ti       2.93598776       2.13735981      22.16175970  F       0.00006121      -0.00012216       0.00330700
Ti       5.87199313       2.13144069      22.13971192  F      -0.00006292       0.00210020      -0.00583722
Ti       2.93597014       6.19006081      22.16662063  F       0.00003682      -0.00093733      -0.00040306
Ti       5.87198138       6.18750436      22.09743919  F      -0.00000628       0.00694584       0.01904929
Ti       4.42995349       4.06385017      23.57702807  F       0.00115450       0.00064552       0.00422538
Ti       1.44204551       4.06385017      23.57698466  F      -0.00125873       0.00072074       0.00448501
Ti       4.38435741       0.90274476      24.15070457  F      -0.00703286      -0.00865583      -0.00080794
Ti       1.48761223       0.90275166      24.15070457  F       0.00701273      -0.00873759      -0.00083464
Al       2.93598188       5.71247962      25.29623474  F      -0.00001610      -0.00139310      -0.00455209
Ti       5.87198726       5.65515582      25.33568639  F       0.00027590       0.01836267      -0.02429773
Ti       2.93599363       2.92465765      25.75468117  F      -0.00008405      -0.01292238      -0.00370719
Ti       5.87198726       2.81905755      25.76058373  F       0.00012893       0.00010166       0.00545199
Ti       4.36779838       0.69193733      26.95428918  F       0.01177728      -0.01346084       0.04730694
Ti       1.50423586       0.69193733      26.95428918  F      -0.01178362      -0.01367618       0.04731762
Ti       4.38099276       4.68682530      27.53573449  F       0.00257288      -0.02082792       0.00817223
Ti       1.49103560       4.68679773      27.53577789  F      -0.00272865      -0.02067389       0.00795917
Ti       0.00002936       2.52455558      28.72766049  F       0.00002442       0.03542330      -0.06724365
Ti       2.93604648       2.54369797      28.68959768  F      -0.00006103       0.03454137      -0.03758421
Ti       0.00001762       6.58289318      29.21466489  F       0.00013070       0.02548140       0.08418969
Ti       2.93603473       6.61946217      29.26735389  F      -0.00006978       0.01763155      -0.01374032
Ti       1.46724813       4.43753326      30.37360601  F      -0.03994358      -0.05792477      -0.06088247
Ti       4.40483307       4.43752637      30.37356261  F       0.03996584      -0.05806850      -0.06035206
Ti       1.47486999       1.50158174      30.98330548  F      -0.10482684      -0.01710226      -0.00029749
Ti       4.39718773       1.50156796      30.98330548  F       0.10492275      -0.01690432      -0.00017008
Ti       2.93604060       6.23544990      32.21016941  F       0.00008629       0.10510648       0.42583503
Ti       0.00004110       6.23002692      32.19684525  F      -0.00015920      -0.02853972       0.49299808
Ti       2.93604060       3.41455254      32.62126518  F      -0.00008407      -0.03076135       0.94877284
Ti       0.00004110       3.40856451      32.61892152  F      -0.00007316      -0.04669782       0.23699789
Ti       4.40523237       1.32077646      33.80008403  F      -0.40116405      -0.09583793       0.21455137
Ti       1.46684884       1.32079024      33.80004063  F       0.40124413      -0.09614480       0.21495607
Ti       4.40412843       5.03307648      34.41243097  F      -0.67130057       0.11120685      -0.47683848
Ti       1.46791167       5.03309027      34.41238757  F       0.67146803       0.11121963      -0.47695596
