64
Lattice="5.088765 0.0 0.0 0.0 9.739025 0.0 0.0 0.0 38.303587" Properties=species:S:1:pos:R:3:move_mask:L:1:forces:R:3 job_name=BondOrder-VacuumGB-T2-Al-Al-39-d-2.12 top_level=BondOrder-VacuumGB solute=Al energy=-477.74522348 stress_kbar_3x3="_JSON [[-18.57686672, 0.41245128, -0.36882947], [0.41245129, -19.01324817, 1.69395616], [-0.36882949, 1.69395613, -21.3803263]]" pbc="T T T"
Ti       2.54338510       9.26252372       8.36791653  F       0.84662231       0.03953238       0.91311955
Ti       5.08848512       4.39389748       8.36768671  F       0.85712895       0.04291941       0.92611987
Ti       1.27733599       1.90465138       8.96097096  F      -0.82693854      -0.40591892       0.60252812
Ti       3.82129612       6.77554682       8.95802159  F      -0.82196401      -0.40368946       0.60190017
Ti       2.68268496       4.11522501       9.72210154  F      -0.12427167      -0.13971710       0.12082876
Ti       0.13751370       8.99298647       9.72968565  F      -0.11057470      -0.15153115       0.13154449
Ti       1.02640899       6.23942323      10.47354131  F       0.10108070       0.25088987      -0.70170116
Ti       3.56957019       1.36876153      10.47166444  F       0.09608053       0.24646391      -0.69082245
Ti       0.23150827       3.50483162      11.11543282  F       0.05202455       0.24574995      -0.45620573
Ti       2.77383491       8.37812286      11.10938086  F       0.06320400       0.23750372      -0.44906665
Ti       1.10625680       0.86276075      11.86714072  F      -0.05610859       0.02922372      -0.18957015
Ti       3.64842060       5.73379253      11.84427348  F      -0.05373285       0.03455135      -0.19950497
Ti       2.76144886       3.09893828      12.53124831  F       0.01644268      -0.09481793      -0.02768955
Ti       0.21381973       7.97243404      12.54300751  F       0.00684367      -0.09400087      -0.02344690
Ti       3.61636138       0.41863199      13.20734492  F       0.00914716       0.03139076      -0.01872851
Ti       1.06912408       5.29352043      13.20516162  F       0.00753776       0.04212693      -0.01866888
Ti       2.75395311       7.50738586      13.92389012  F      -0.01172906      -0.03656467       0.03477765
Ti       0.21184529       2.63543860      13.94066710  F      -0.01219044      -0.03578636       0.03940474
Ti       3.61545049       4.84742439      14.62925068  F       0.00284021       0.01822498      -0.01950585
Ti       1.07521533       9.70537667      14.67483195  F       0.00460207       0.01216949      -0.02927066
Ti       0.20205959       7.05076193      15.31534453  F       0.00255879      -0.01179987      -0.00102311
Ti       2.75254352       2.17237718      15.28768934  F       0.00527272       0.00131460      -0.00233350
Ti       1.11149314       4.43170437      16.01216338  F      -0.00181783       0.00740856      -0.00585054
Ti       3.64869539       9.28772832      16.01285285  F      -0.00159367       0.00569461       0.00207878
Ti       0.26933307       1.74498007      16.73640761  F      -0.02150146      -0.00921679       0.00061078
Ti       2.79686158       6.63647354      16.70821617  F      -0.01249217      -0.00194209       0.00130510
Ti       1.02743183       8.72807525      17.45352736  F      -0.00291640       0.01162308      -0.00452155
Ti       3.58489755       3.87915105      17.33045794  F      -0.01219370       0.01228134      -0.00710931
Ti       2.69391077       1.14762723      18.13341603  F       0.00590481      -0.00490502      -0.00196685
Ti       0.06186412       5.97234995      18.19539124  F       0.00452613       0.00192796       0.00820109
Ti       3.80555149       8.23510528      18.89929625  F       0.00910611      -0.00629398       0.00194254
Ti       1.31959310       3.34848131      18.88198303  F       0.00668439       0.00019427       0.00880037
Ti       0.06101429       0.88684536      19.48917149  F       0.00457889      -0.00393870       0.00598574
Ti       2.58467534       5.75963991      19.37939341  F       0.00025425      -0.00942249       0.00280992
Ti       3.88246308       3.45328296      20.08946531  F      -0.01250311      -0.00804134      -0.00686962
Ti       1.37106087       8.33378108      20.23406135  F       0.00450643      -0.01609773      -0.01015407
Ti       2.40669070       1.37596841      20.91590350  F      -0.01312749       0.00119762      -0.01888154
Ti       4.80288836       6.20576516      20.92869690  F      -0.00086880       0.01187607      -0.01622302
Ti       1.51125634       4.10131769      21.57135448  F       0.00404375       0.00809957      -0.00976723
Al       4.03804189       8.90370883      21.60180584  F       0.00069764       0.00056130      -0.00295308
Ti       4.94545520       1.82254166      22.22772475  F      -0.00779349       0.01932784       0.01100640
Ti       2.41284301       6.71979090      22.36994597  F       0.00749226       0.02790504      -0.00093606
Ti       1.48887086       9.33401791      22.97135059  F       0.02166023       0.00404193       0.00440440
Ti       3.99766763       4.44152131      22.97770898  F       0.01357153      -0.00063004       0.01171541
Ti       4.91285657       7.10318710      23.64943899  F       0.00652623       0.01128205       0.03093635
Ti       2.30427421       2.25886946      23.66767150  F       0.01052009       0.02375345       0.03406140
Ti       1.46196147       4.88155967      24.36996776  F      -0.03238808       0.00166955      -0.00851958
Ti       3.99309792       9.73702850      24.32170524  F      -0.04093889       0.02300364       0.02291803
Ti       2.29849338       7.54370268      25.11543217  F       0.01982411      -0.02070885       0.03240890
Ti       4.84877884       2.66851233      25.07107662  F       0.01201204      -0.01083137       0.02498471
Ti       4.01037937       5.33233045      25.76069440  F       0.04609755      -0.01174313       0.11715835
Ti       1.45642490       0.45338083      25.77019369  F       0.05558619      -0.00513404       0.12247985
Ti       4.86220809       7.99432737      26.47375398  F      -0.11262983       0.00360497       0.18651226
Ti       2.32226300       3.11873771      26.47233674  F      -0.09623198      -0.00519828       0.19475892
Ti       1.42432497       5.74874194      27.16413783  F       0.12586295       0.10436313       0.49951573
Ti       3.96614782       0.88331009      27.14268782  F       0.09895071       0.09251609       0.49352693
Ti       2.31088452       8.37426621      27.89550652  F       0.12043955       0.32286793       0.38184570
Ti       4.85698702       3.50482188      27.86907704  F       0.14566573       0.29068135       0.36907609
Ti       1.47655096       1.32794528      28.52751570  F      -0.27549895       0.15197243       0.14917850
Ti       4.02047039       6.20224938      28.52583035  F      -0.28161242       0.14840766       0.16367902
Ti       4.88380481       8.91519114      29.25057252  F      -0.76577599      -0.55513503      -0.53071633
Ti       2.33864373       4.03498519      29.24969153  F      -0.77297501      -0.54652601      -0.53325064
Ti       3.82249707       1.86788656      30.02193015  F       0.83686075       0.03348641      -1.14548599
Ti       1.27222687       6.73395145      30.02897801  F       0.84961073       0.03778227      -1.12138117
