64
Lattice="5.088765 0.0 0.0 0.0 9.739025 0.0 0.0 0.0 38.303587" Properties=species:S:1:pos:R:3:move_mask:L:1:forces:R:3 job_name=BondOrder-VacuumGB-T2-Al-Al-38-d-2.12 top_level=BondOrder-VacuumGB solute=Al energy=-477.71675882 stress_kbar_3x3="_JSON [[-18.57901147, 0.35774799, -0.34860178], [0.35774798, -18.94407199, 1.69083428], [-0.34860177, 1.69083426, -21.04529107]]" pbc="T T T"
Ti       2.53900368       9.26935078       8.36496715  F       0.87435875       0.04002058       0.92485256
Ti       5.08204274       4.39862090       8.36649929  F       0.85923675       0.03287740       0.91466812
Ti       1.27090888       1.90893655       8.95357837  F      -0.81668926      -0.40750428       0.61436392
Ti       3.81641091       6.77545917       8.95940052  F      -0.82324846      -0.41780743       0.61213766
Ti       2.68665928       4.11936410       9.73424378  F      -0.12456818      -0.13193391       0.14059345
Ti       0.14373217       8.98270206       9.72030127  F      -0.14060393      -0.12392035       0.13834376
Ti       1.02418011       6.23611197      10.46959604  F       0.09728188       0.25148074      -0.67732900
Ti       3.56937681       1.37073855      10.47078345  F       0.10582305       0.25373414      -0.69513535
Ti       0.23155407       3.50732481      11.11359425  F       0.05949078       0.23767921      -0.44928632
Ti       2.77826214       8.37221128      11.11501148  F       0.05214064       0.25100593      -0.45190126
Ti       1.10657739       0.86807825      11.84354571  F      -0.05022471       0.02797244      -0.20056361
Ti       3.65286818       5.73238038      11.87185206  F      -0.05481005       0.02831957      -0.19433144
Ti       2.76244117       3.10352536      12.54997876  F       0.00285999      -0.09091526      -0.03310300
Ti       0.22179382       7.96972659      12.52944804  F       0.01504292      -0.09297882      -0.02847772
Ti       3.62035606       0.42933518      13.20397421  F       0.00149960       0.03615398      -0.02263637
Ti       1.07713889       5.29106620      13.21052412  F       0.01033227       0.03026282      -0.02603018
Ti       2.76338768       7.50963557      13.94273549  F      -0.01303017      -0.03723807       0.03613088
Ti       0.21474079       2.64404790      13.93109120  F      -0.00819281      -0.04030205       0.02789409
Ti       3.62317524       4.83786067      14.68088391  F       0.00827546       0.02073017      -0.03630434
Ti       1.07572421       9.72316987      14.62488407  F       0.00677792       0.01453207      -0.01831503
Ti       0.21668979       7.04497695      15.28933639  F       0.00125035       0.00177227      -0.00130646
Ti       2.75146470       2.18452174      15.32622275  F       0.00696684      -0.01188787      -0.01733633
Ti       1.11203255       4.42152709      16.02311821  F      -0.00305274       0.00299187      -0.01165989
Ti       3.66315257       9.30528778      16.01174204  F      -0.00562063       0.00057730      -0.00875518
Ti       0.25601577       1.77099300      16.71227635  F      -0.01261091      -0.00451521      -0.00523180
Ti       2.82182197       6.61882643      16.73958681  F      -0.02027843      -0.01190596      -0.00326836
Ti       1.05119636       8.75830518      17.32505713  F      -0.01723794       0.00872146      -0.00164354
Ti       3.58772181       3.86723048      17.46249040  F      -0.01446215       0.00918056      -0.01155267
Ti       2.61184935       1.10792122      18.19933651  F       0.00612075       0.01013793      -0.00108342
Ti       0.16904368       6.03332599      18.13590577  F      -0.00447721      -0.01058480      -0.00430737
Ti       3.86965466       8.22520069      18.87432232  F       0.00629907      -0.00317997       0.01196579
Ti       1.26903622       3.37276070      18.90163277  F       0.00169743      -0.00342171      -0.00672388
Ti       0.04410433       0.89511379      19.38065743  F       0.00504079      -0.01055889       0.00499254
Ti       2.61336580       5.76087676      19.49763659  F      -0.00010376      -0.00738309       0.00087515
Ti       3.92321900       3.46533988      20.24038144  F      -0.00630201      -0.01464001      -0.01421977
Ti       1.34099644       8.32555161      20.08460075  F      -0.00952795      -0.01802751       0.00115478
Ti       2.25937095       1.34218373      20.92953958  F       0.00050445       0.00420886      -0.01561814
Ti       4.95792776       6.24642559      20.91693770  F      -0.01673462      -0.00125617      -0.02012434
Al       1.49675336       4.03490727      21.60693852  F      -0.00803223      -0.00359827      -0.01009331
Ti       4.05123197       8.96956411      21.56120403  F       0.00652582       0.00687370       0.00657735
Ti       4.95634007       1.84931424      22.37147811  F       0.00772142       0.02235751       0.00134488
Ti       2.40388170       6.69151851      22.23121038  F      -0.01321123       0.01148264       0.00526518
Ti       1.44803352       9.30437231      22.96545184  F       0.01980013       0.00349555       0.02478127
Ti       4.03112626       4.45979172      22.97311255  F       0.02328630       0.00432503      -0.00051352
Ti       4.84717079       7.12417470      23.66372623  F       0.01081074       0.01967937       0.04539042
Ti       2.36528342       2.22597103      23.65269479  F       0.00859671       0.01789261       0.02364196
Ti       1.44259872       4.85677386      24.32683793  F      -0.04022811       0.03142898       0.01763018
Ti       4.00035959       0.00064278      24.36062169  F      -0.03206163       0.01124190       0.00636734
Ti       2.29530272       7.53118803      25.06636528  F       0.02192956      -0.01258071       0.03054367
Ti       4.83435219       2.66450959      25.11566200  F       0.02591060      -0.01079149       0.03535200
Ti       3.99070620       5.31256023      25.76892967  F       0.06243378       0.00264012       0.12434357
Ti       1.45497460       0.44963131      25.75368484  F       0.05552995       0.00184850       0.12255747
Ti       4.85544512       7.97780998      26.46904264  F      -0.09047189       0.00204789       0.19472501
Ti       2.30980061       3.11467654      26.47792907  F      -0.11058118       0.00745113       0.18503595
Ti       1.41355714       5.74412564      27.13950862  F       0.10034212       0.09492503       0.48735608
Ti       3.95973089       0.86700696      27.15387247  F       0.12511389       0.11353819       0.49234404
Ti       2.30015231       8.36629969      27.86382945  F       0.14507511       0.30099462       0.37120432
Ti       4.84586807       3.49630998      27.89405098  F       0.11313030       0.33340762       0.37823041
Ti       1.47099912       1.32647468      28.52146374  F      -0.28576144       0.14901666       0.16376867
Ti       4.01558517       6.19396147      28.52479615  F      -0.27804967       0.15248435       0.15122490
Ti       4.87059947       8.90888025      29.24597609  F      -0.77214714      -0.56442926      -0.53925601
Ti       2.32948904       4.04910677      29.25313886  F      -0.76292756      -0.57113575      -0.54220122
Ti       3.80752084       1.87022393      30.02545408  F       0.85097562       0.02872071      -1.11102350
Ti       1.26849172       6.74487863      30.02012988  F       0.83706626       0.02428548      -1.13632504
