100
Lattice="4.4265 -2.555641 0.0 3.767997 6.526363 -0.031456 0.0 0.0 61.781652" Properties=species:S:1:pos:R:3:move_mask:L:1:forces:R:3 job_name=BondOrder-VacuumGB-CSL13-Al-Al-59-d-4.19 top_level=BondOrder-VacuumGB solute=Al energy=-757.40369627 stress_kbar_3x3="_JSON [[-34.08070376, -1.63222155, -0.23939681], [-1.63222153, -38.33249844, 0.94615826], [-0.23939684, 0.94615825, -23.96034316]]" pbc="T T T"
Ti       2.44061696      -0.93674754       8.04349926  F       0.12929157      -0.01638589       1.73104801
Ti       5.73813874       1.51132791       8.02869440  F      -0.07409124       0.10047123       1.73006027
Ti       4.96566319      -0.85229973       9.38964486  F       0.43304503      -0.00305761      -0.07948333
Ti       4.55233625       3.73821786       9.37428402  F      -0.21349216       0.37311388      -0.08293052
Ti       7.07279493       3.81767411      10.62049453  F      -0.14636975      -0.04819592      -0.99207307
Ti       3.77859065       1.36847516      10.63548187  F       0.03648025      -0.15457670      -0.99503021
Ti       1.63746616      -0.48430836      10.89352757  F       0.29517524      -0.25135999      -0.14666441
Ti       2.11163381       3.59160371      10.87687731  F      -0.36529864       0.13291778      -0.14242292
Ti       4.71039614       3.60749920      12.17060247  F       0.03508928      -0.12741860      -0.32725574
Ti       4.78155730      -0.78404178      12.18750268  F      -0.13142906      -0.03233590      -0.32954357
Ti       3.41723978       5.82498023      13.24590830  F      -0.08182174       0.04237214       0.04634498
Ti       2.92521452       1.75974372      13.26206298  F       0.07389488      -0.04948643       0.04577034
Ti       2.37836703      -0.99381255      13.76549604  F       0.03886229      -0.04301625       0.00938539
Ti       5.73307513       1.42112454      13.75044449  F      -0.05584677       0.01268732       0.01023582
Ti       4.25180196       3.72492080      14.95792009  F      -0.00167054       0.02390480      -0.03560362
Ti       5.11941789      -1.12655798      14.97339970  F       0.01993439       0.01036376      -0.03619093
Ti       6.90384810       3.55489947      15.84562105  F      -0.00129614      -0.00354029      -0.01463622
Ti       3.64493663       1.08268755      15.86006189  F      -0.00252575      -0.00313592      -0.01434745
Ti       6.35157685       0.85310035      16.61262419  F      -0.00557859      -0.00153351       0.00231344
Ti       1.58245143      -0.74498755      16.62903409  F      -0.00046034      -0.00591876       0.00181042
Ti       4.77544445       3.14514693      17.68442061  F      -0.00569087       0.00325693       0.01095710
Ti       4.35966552      -0.96469343      17.70020671  F       0.00599258      -0.00158853       0.01071819
Ti       3.15737360       5.37866111      18.47380330  F      -0.00284171      -0.00556421       0.00980657
Ti       2.67551027       1.30757502      18.48971079  F      -0.00129328      -0.00398571       0.01044251
Ti       5.88209781       5.17130843      19.43871459  F       0.00108174      -0.01006590      -0.00053865
Ti       5.56189162       1.00412237      19.45636197  F      -0.00714198      -0.00640494      -0.00111286
Ti       0.57892262       0.88380442      20.37007367  F       0.00099369      -0.00403805      -0.00726474
Ti       3.84538244       3.35316370      20.35470067  F      -0.00146061      -0.00140594      -0.00658486
Ti       3.29041341       0.63066290      21.17948834  F      -0.00190891      -0.00107088       0.00059744
Ti       6.69452253       3.01559899      21.16438036  F      -0.00024576      -0.00249098       0.00330524
Ti       5.08669827       5.33878675      22.28499963  F      -0.00143999      -0.00308618       0.00371697
Ti       6.11317788       0.39545745      22.30085041  F      -0.00063755      -0.00474719       0.00385898
Ti       4.53527476       2.61195907      22.96250809  F      -0.00147230      -0.00634145      -0.00244395
Ti       4.02970818      -1.44123896      22.98080988  F      -0.00119424      -0.00837984      -0.00171927
Ti       7.15245081       2.49532833      23.91329146  F      -0.00488485      -0.00038073       0.00121314
Ti       2.61945637       0.76302468      23.92882876  F       0.00419415      -0.00969343       0.00290075
Ti       5.75253484       4.77276760      25.16486642  F       0.00030948      -0.00018657       0.00544796
Ti       5.30290416       0.68302848      25.18880568  F      -0.00263765      -0.00060443       0.00557706
Ti       3.61743475       2.91989961      25.56147609  F      -0.00012128       0.00084948      -0.00212294
Ti       0.33653232       0.46126307      25.57597554  F       0.00046008      -0.00136098      -0.00299135
Ti       2.87695004       0.49322265      26.72791372  F      -0.00414619       0.00242327       0.00790239
Ti       6.80804495       2.57867193      26.71847241  F       0.00371501      -0.00214584       0.00611670
Ti       4.93122559       5.17750153      28.04414245  F       0.00249777       0.00259964       0.00387860
Ti       1.65029849       2.72329975      28.06709000  F       0.00203635       0.00033424       0.00407786
Ti       4.40022875       2.38385891      28.19781783  F      -0.00146508       0.00064261      -0.00175362
Ti       3.92550683      -1.68657297      28.21444944  F      -0.00024420      -0.00321375      -0.00234983
Ti       6.89071394       2.48643317      29.51036081  F      -0.00223198       0.00047748      -0.00419145
Ti       2.76357246       0.50787131      29.51815679  F      -0.00089801      -0.00004566      -0.00029416
Ti       3.58630830       2.83093384      30.86872122  F       0.00158029      -0.00095252       0.00228575
Ti       0.27933562       0.38568692      30.88835455  F       0.00370222       0.00422365      -0.00355332
Ti       5.73876298       4.67456532      30.92848977  F      -0.00246031      -0.00163235       0.00276250
Ti       5.26557105       0.62818951      30.93687605  F       0.00380051      -0.00793226      -0.00064193
Ti       2.70953430       0.50016444      32.29130510  F      -0.00373546       0.00573748       0.00362902
Ti       6.95952864       2.46553372      32.29788088  F      -0.00002237       0.00025491       0.00692260
Ti       3.99699041      -1.62430982      33.53366075  F       0.00547561       0.00039937      -0.00308753
Ti       4.42253327       2.28342370      33.44216096  F       0.00984517       0.00543511      -0.00084822
Ti       1.73142969       2.75650664      33.78432184  F      -0.00786002      -0.00300647       0.00559306
Ti       4.96169043       5.08232724      33.88260368  F       0.00361979       0.00003238      -0.00193311
Ti       2.97691614       0.51613822      35.09057200  F      -0.00045278       0.00142522      -0.00520915
Al       6.61535336       2.75738766      35.04015527  F       0.00638506      -0.00082830      -0.00597257
Ti       0.41327701       0.49442678      36.08450736  F       0.00148171       0.00546134      -0.00286602
Ti       3.76586263       3.13061472      36.01311875  F       0.00437053       0.00389207       0.00507869
Ti       5.34996939       0.75198433      36.65964286  F       0.00646135       0.00671266       0.00030815
Ti       5.89577310       4.93192726      36.72605761  F       0.00172945       0.00195098      -0.00232449
Ti       7.26485304       2.61223124      37.77983498  F       0.00484669       0.00740395      -0.00530590
Ti       2.56196105       1.05744817      37.83697311  F      -0.00188250       0.00791720      -0.00694078
Ti       4.60897938       2.80041283      38.67534196  F       0.00278935       0.00758738       0.00497174
Ti       4.19894137      -1.21142680      38.64491983  F       0.00426846       0.00216569      -0.00303155
Ti       6.18316763       0.63438588      39.54872184  F       0.00062507       0.00302137      -0.00327390
Ti       5.17479985       5.49532909      39.49167559  F      -0.00108218       0.00447672      -0.00228750
Ti       3.41193519       0.80048968      40.52122043  F       0.00307701       0.00980607      -0.00126824
Ti       6.74539647       3.29975337      40.48354343  F       0.00847641       0.01304042      -0.00191411
Ti       4.01225749       3.55174033      41.31886748  F       0.00655098      -0.00052023       0.00666992
Ti       0.65296309       1.12360513      41.30951077  F       0.00015568       0.00678398       0.00214692
Ti       2.21129681      -1.13026735      42.39175437  F      -0.00363117      -0.00739593      -0.00168094
Ti       5.62282235       1.21982608      42.37731290  F      -0.00899808      -0.00114885       0.00158542
Ti       3.25806246       5.59458340      43.12758401  F       0.00306182       0.00630438      -0.00282257
Ti       2.77780974       1.56907863      43.13387078  F       0.00569042       0.00881990      -0.00120199
Ti       4.76002721       3.40188453      44.02963061  F       0.00280486       0.01623957       0.00814867
Ti       4.55385137      -0.84036961      44.03754986  F       0.01183680       0.01516435       0.01144481
Ti       6.43481442       0.98506631      45.24795448  F       0.00044910      -0.00278425       0.00130040
Ti       1.59501126      -0.57648837      45.26524476  F      -0.00045665       0.00084108      -0.00478294
Ti       6.99482333       3.74211865      45.72322625  F      -0.01289097      -0.00424528      -0.00991911
Ti       3.70583131       1.26853005      45.73118599  F       0.00631384      -0.01009605      -0.01115572
Ti       4.42590006       3.74140115      46.80933676  F       0.01808104       0.00687391      -0.02186803
Ti       5.00281401      -0.93767231      46.82813607  F       0.00323803       0.01873694      -0.02352330
Ti       5.70737306       1.49044571      48.12024549  F       0.03969904      -0.04999589      -0.01781005
Ti       2.41520075      -0.95641956      48.13954488  F      -0.06367961       0.01156495      -0.01858121
Ti       3.42446661       5.89985512      48.34402618  F       0.02090687      -0.06671972       0.01927003
Ti       2.95145903       1.82484831      48.36023828  F      -0.06992674      -0.01342252       0.01594602
Ti       4.61604602       3.68530184      49.60692482  F       0.00553711       0.04363023       0.36247808
Ti       4.86869310      -0.81335217      49.62513088  F       0.03414542       0.02699078       0.36687928
Ti       2.10271591       3.60088583      50.96913871  F       0.14909971      -0.01092486       0.56076598
Ti       1.63122190      -0.47931964      50.98511931  F      -0.09458223       0.12997462       0.56298884
Ti       7.07263381       3.82340591      51.02499495  F       0.47377130      -0.09889932       0.17210615
Ti       3.76614778       1.38238556      51.03831026  F      -0.32505389       0.35828019       0.18019571
Ti       4.59065592       3.71311797      52.38180015  F       0.15581962      -0.26622272       0.11650029
Ti       4.91721362      -0.82465802      52.39746033  F      -0.31420297       0.00895294       0.11559324
Ti       3.44573361       5.92644763      53.72179313  F       0.05084586      -0.09085862      -1.40395658
Ti       2.98433582       1.84188371      53.73820089  F      -0.11084087      -0.00216719      -1.40574697
