64
Lattice="5.088765 0.0 0.0 0.0 9.739025 0.0 0.0 0.0 38.303587" Properties=species:S:1:pos:R:3:move_mask:L:1:forces:R:3 job_name=BondOrder-VacuumGB-T2-V-V-51-d-6.29 top_level=BondOrder-VacuumGB solute=V energy=-481.54291872 stress_kbar_3x3="_JSON [[-16.93429488, 4.6891259, 1.10466345], [4.68912588, -22.9731769, 0.48220042], [1.10466347, 0.48220045, -20.00458303]]" pbc="T T T"
Ti       2.51450636       9.39141972      29.77766818  F      -0.52598207       0.02419729      -0.88725583
Ti       5.06833870       4.51053204      29.76774755  F      -0.49687513      -0.01833488      -0.89101108
Ti       1.21295803       1.91266660       8.21845593  F      -0.74270708       0.04604888       1.21883307
Ti       3.76852054       6.78009495       8.21926031  F      -0.74966875       0.04332565       1.21846868
Ti       2.83359228       4.01750364       9.09380780  F       0.46224387      -0.73566528       0.35959033
Ti       0.28447723       8.88643180       9.10269424  F       0.45706736      -0.73344674       0.34052593
Ti       0.97713957       6.06367279       9.73366922  F       0.26082915       0.38537953      -0.22407773
Ti       3.51626028       1.19962388       9.72937922  F       0.26078321       0.36941115      -0.22202055
Ti       0.15085644       3.38598630      10.42512558  F       0.09400211       0.28020548      -0.25249687
Ti       2.69459775       8.25712522      10.42581504  F       0.09941127       0.27677747      -0.25212940
Ti       1.09975845       0.81284824      11.18518365  F      -0.12759266       0.04010435      -0.46245503
Ti       3.64750462       5.68331517      11.18231089  F      -0.13225426       0.04063780      -0.46955313
Ti       2.75924034       3.03231361      11.79819426  F       0.13560944       0.00451861      -0.11963629
Ti       0.21604861       7.90025812      11.80240766  F       0.13654967       0.00206924      -0.12220766
Ti       3.60006715       0.35439338      12.48624159  F      -0.04830875      -0.01842133      -0.15444236
Ti       1.05697211       5.22333128      12.48792695  F      -0.04765821      -0.02128004      -0.15501004
Ti       2.74539890       7.43928085      13.26269361  F      -0.05079801      -0.00396999      -0.01039640
Ti       0.20024290       2.56965149      13.26422575  F      -0.04988390      -0.00875960      -0.01448535
Ti       3.59655591       4.77066140      13.95598853  F       0.03058531       0.01426718      -0.02594000
Ti       1.05027530       9.64060241      13.95966567  F       0.03487102       0.01017476      -0.02430430
Ti       0.16679445       6.98986381      14.57382539  F       0.01261935       0.01680855      -0.04425162
Ti       2.71102429       2.11971827      14.57187191  F       0.01222771       0.01273633      -0.04310697
Ti       1.10415005       4.40955783      15.31132265  F      -0.00303162      -0.01368913      -0.03213963
Ti       3.64850711       9.28026823      15.31484658  F      -0.00365452      -0.01196064      -0.03063560
Ti       0.28486906       1.72410933      16.03391982  F      -0.00210616      -0.00266964       0.00023235
Ti       2.82737381       6.59361210      16.02759973  F      -0.00451856      -0.00257647       0.01144389
Ti       0.97413211       8.65198425      16.67033392  F      -0.01449851      -0.01280010       0.02397378
Ti       3.51627555       3.78375730      16.66248168  F      -0.01483205      -0.01456163       0.02498465
Ti       2.60207892       0.98826756      17.51316605  F       0.00227534       0.01973850       0.00929465
Ti       0.05440399       5.85803328      17.50634801  F      -0.00723487       0.01902572       0.01191492
Ti       3.85460209       8.13428689      18.25208054  F      -0.00490412      -0.01031758       0.00557424
Ti       1.31529309       3.26260259      18.25039519  F      -0.00031944      -0.01422798       0.00502972
Ti       0.03537201       0.84111089      18.70555671  F       0.00881316      -0.00245920       0.01090058
Ti       2.57582598       5.71164599      18.69946644  F       0.00972378       0.00082780       0.01015041
Ti       3.86795501       3.43723305      19.41168334  F      -0.00218383      -0.01456474      -0.02235359
Ti       1.31954730       8.30887840      19.42700477  F       0.00270336      -0.00910314      -0.01950401
Ti       2.31696559       1.31157397      20.28512003  F      -0.00943404      -0.00465092      -0.01943907
Ti       4.84750665       6.17732721      20.26853458  F      -0.01251564      -0.00020322      -0.02063985
Ti       1.52397825       4.05237909      20.92613056  F      -0.01036785       0.00877220      -0.00533742
Ti       4.06328217       8.92710196      20.93555324  F      -0.00734230       0.00928282       0.00002197
Ti       4.93283506       1.85358967      21.54967465  F       0.01675576       0.00536670       0.00947765
Ti       2.38858996       6.73507143      21.56403850  F       0.02453080       0.00315770       0.01318714
Ti       1.43376972       9.30564813      22.36109784  F      -0.00921975       0.00918954       0.01758824
Ti       3.97054451       4.41636541      22.33137426  F       0.00170464       0.01004187       0.00876407
Ti       4.82037845       7.10369353      22.96621791  F       0.02152102       0.01207867       0.01521968
Ti       2.26884114       2.21222927      23.02474579  F       0.00729987       0.01695733       0.01249783
Ti       1.51462001       4.99232161      23.64947729  F      -0.01801630      -0.00484204       0.01707573
Ti       4.10419584       0.14415705      23.67809007  F      -0.01519255       0.00181112       0.00707276
Ti       2.40765756       7.70104637      24.46856120  F       0.03376884      -0.05934452      -0.07460567
Ti       4.99729954       2.74985266      24.46879102  F       0.04085328      -0.02258888      -0.08405302
Ti       3.97867127       5.40093214      25.14664960  F      -0.01468371       0.03491206       0.00045079
V        1.40696210       0.55771501      25.23375195  F      -0.01347062       0.04727496       0.02369034
Ti       4.99971670       8.01897684      25.62774265  F      -0.02802627      -0.07142169      -0.02686240
Ti       2.44192022       3.12574007      25.63306685  F      -0.04036763      -0.07494849      -0.03744197
Ti       1.40294707       5.69942352      26.41047645  F       0.09051914       0.03049296       0.17585343
Ti       3.90483838       0.78170284      26.40270082  F       0.10648340       0.04080137       0.18775426
Ti       2.16757981       8.41613428      27.14613514  F      -0.14577036       0.20312626       0.40544276
Ti       4.73755371       3.51200928      27.15555783  F      -0.19502704       0.29593035       0.38399377
Ti       1.60781566       1.60927649      27.77029209  F      -0.10691770       0.13015518       0.68229795
Ti       4.18032376       6.48580109      27.78925237  F      -0.08685248       0.13176430       0.73430054
Ti       5.05437513       9.25828725      28.65675201  F       0.14545178      -0.22944247      -0.21010669
Ti       2.52304531       4.39957533      28.64480129  F       0.14116486      -0.22213843      -0.21360738
Ti       3.76319769       2.08877739      29.39601124  F       0.55530984      -0.15302852      -0.39175385
Ti       1.23341995       6.96732770      29.41378410  F       0.53653839      -0.10595239      -0.38234533
