100
Lattice="4.4265 -2.555641 0.0 3.767997 6.526363 -0.031456 0.0 0.0 61.781652" Properties=species:S:1:pos:R:3:move_mask:L:1:forces:R:3 job_name=BondOrder-VacuumGB-CSL13-V-V-53-d-1.39 top_level=BondOrder-VacuumGB solute=V energy=-761.17179545 stress_kbar_3x3="_JSON [[-36.15524801, -2.58943176, 0.09113829], [-2.58943176, -38.97342429, -0.15259623], [0.09113829, -0.1525962, -24.17471068]]" pbc="T T T"
Ti       2.46021742      -0.92425570       8.01406691  F       0.11278175      -0.02745303       1.77872134
Ti       5.75572262       1.52413994       7.99815303  F      -0.08011340       0.08589947       1.77863907
Ti       4.97226431      -0.83062326       9.38423950  F       0.41392308       0.00046318      -0.10286835
Ti       4.58078082       3.74624748       9.36857350  F      -0.20762907       0.35782645      -0.10343029
Ti       7.09051288       3.83524695      10.63775467  F      -0.13770394      -0.04053228      -0.96513939
Ti       3.79441456       1.38760272      10.65366707  F       0.03276541      -0.14023355      -0.96549816
Ti       1.65017219      -0.46809707      10.87632893  F       0.30461433      -0.26108422      -0.13235348
Ti       2.12901960       3.60627048      10.86053944  F      -0.37655167       0.13205036      -0.13300031
Ti       4.70998091       3.63691612      12.16790216  F       0.04790973      -0.12101034      -0.35457830
Ti       4.81298028      -0.77310237      12.18406135  F      -0.12650188      -0.02108487      -0.35419543
Ti       3.43721913       5.85658005      13.27095929  F      -0.08346620       0.03344014       0.03731538
Ti       2.94582873       1.78972395      13.28705672  F       0.06830678      -0.05729585       0.03622301
Ti       2.40202910      -0.97229241      13.75733724  F       0.03935438      -0.03920959       0.00273270
Ti       5.74387548       1.44887825      13.74154863  F      -0.05375841       0.01753080       0.00248954
Ti       4.28560586       3.74876527      14.96548605  F      -0.00156577       0.01774747      -0.02993160
Ti       5.12325965      -1.08548448      14.98213977  F       0.01226231       0.00812229      -0.03144659
Ti       6.92586699       3.59241374      15.87249985  F      -0.00197191      -0.00851907      -0.01296777
Ti       3.66832133       1.12365106      15.88871704  F      -0.00790011      -0.00526747      -0.01253655
Ti       6.37429573       0.88411922      16.61573908  F      -0.00758413      -0.00117678      -0.00165655
Ti       1.59831735      -0.70871556      16.63134112  F      -0.00000609      -0.00589972      -0.00060614
Ti       4.78634355       3.18312048      17.70186836  F      -0.00840383       0.00566553      -0.00009652
Ti       4.37902699      -0.93334600      17.71827857  F       0.00695402      -0.00381329      -0.00093285
Ti       3.17837891       5.41020811      18.49607216  F      -0.00709741       0.00014812       0.00392185
Ti       2.68502659       1.34186547      18.51156124  F       0.00215044      -0.00579864       0.00325279
Ti       5.89178754       5.20039951      19.44723864  F       0.00154410      -0.00579267      -0.00393736
Ti       5.57138596       1.03584978      19.46110822  F      -0.00613004      -0.00103058      -0.00530041
Ti       0.58844373       0.91797028      20.39303664  F      -0.00155923       0.00727889      -0.01468775
Ti       3.85195588       3.38048622      20.37621176  F       0.00294598       0.00284028      -0.01149934
Ti       3.30397472       0.65321132      21.19624492  F       0.00202002       0.00661400       0.00386763
Ti       6.69389746       3.04720810      21.17995994  F       0.00366592       0.00368870       0.00512752
Ti       5.08861384       5.36583118      22.29391799  F       0.00276525       0.00276947       0.00165802
Ti       6.10736694       0.42582285      22.30927864  F       0.00364989       0.00374714       0.00531740
Ti       4.53807250       2.64900597      22.98751346  F       0.00128651       0.00568162      -0.00199923
Ti       4.02820810      -1.41317971      23.00208803  F       0.00620808       0.00523077      -0.00297314
Ti       7.15860769       2.52389207      23.92479030  F       0.00063683       0.00615870      -0.00120119
Ti       2.61188385       0.79750496      23.94144695  F       0.00810447       0.00455887      -0.00421387
Ti       5.74123622       4.82085074      25.17219176  F       0.00492111       0.00275907       0.00075597
Ti       5.30200295       0.72335960      25.18656119  F       0.00439242       0.00339519      -0.00216990
Ti       3.61631549       2.96557771      25.58231907  F      -0.00049926       0.01117737       0.00223766
Ti       0.33507653       0.51327895      25.59951470  F       0.00714813       0.00228210       0.00110847
Ti       2.88163669       0.54767904      26.74519129  F       0.00950068      -0.00396485      -0.00104056
Ti       6.79722002       2.63572292      26.72557900  F      -0.00224042       0.00497820      -0.00059039
Ti       4.93705491       5.24076578      28.03673492  F      -0.00646993       0.00453233       0.00222886
Ti       1.63885730       2.79534299      28.06370259  F       0.00964718      -0.00236992      -0.00363416
Ti       4.39384366       2.46800235      28.21915057  F       0.00329998      -0.00345667      -0.00044262
Ti       3.93066644      -1.62711634      28.24289043  F      -0.00632714       0.00215169       0.00295076
Ti       6.90343370       2.55825855      29.51205164  F      -0.00698417      -0.00259789      -0.00183104
Ti       2.76605871       0.59846629      29.51800946  F      -0.00303481      -0.00149809       0.00185607
Ti       3.57935315       2.95212807      30.91914393  F       0.00335038       0.00128402      -0.00303324
Ti       0.30165487       0.43608051      30.92921060  F      -0.00155193      -0.00079251      -0.00088518
Ti       5.75545088       4.73249147      30.90767226  F       0.00522286      -0.00313286      -0.00098750
Ti       5.27223806       0.72365414      30.92792939  F      -0.00419892       0.00164356       0.00167170
Ti       2.76928611       0.59665516      32.27266779  F       0.00217447      -0.00169993       0.00020473
V        6.90290866       2.55777852      32.24366843  F       0.00299934       0.00787861      -0.00370747
Ti       3.90312101      -1.64321826      33.52898248  F      -0.00114885      -0.00156469      -0.00025995
Ti       4.45989692       2.47161780      33.50108376  F       0.00196717       0.00591133      -0.00029099
Ti       1.68232886       2.81249200      33.68141727  F       0.00311781      -0.00360540      -0.00757630
Ti       4.89261344       5.24623586      33.65634340  F      -0.00316953       0.00132830       0.00665864
Ti       2.92351294       0.54781465      35.04021691  F      -0.00207957      -0.00131990       0.00087614
Ti       6.81613917       2.64953921      35.01807003  F      -0.00290845      -0.00381900       0.00179456
Ti       0.36829802       0.52567741      36.14738199  F       0.00392652      -0.00730015       0.00322572
Ti       3.66534427       2.98686259      36.14105660  F      -0.00652115       0.01388951       0.00207044
Ti       5.35593258       0.72958022      36.57729468  F      -0.00229019       0.00854056      -0.00978001
Ti       5.76531474       4.84411446      36.55495610  F       0.01442471       0.00601477      -0.00280494
Ti       7.22235644       2.53963698      37.80953237  F      -0.00070477       0.00372983       0.00518722
Ti       2.62534168       0.83961390      37.82045298  F       0.00851222       0.00992680      -0.00048732
Ti       4.58636567       2.69266153      38.72551289  F      -0.00021197      -0.00054564       0.00271330
Ti       4.08036068      -1.36127539      38.74029671  F       0.00031509       0.00656981       0.00667145
Ti       6.14639698       0.47305131      39.45701822  F       0.00034430      -0.00053262      -0.00848350
Ti       5.14604298       5.40263706      39.44017409  F       0.00344524      -0.00194371      -0.00938223
Ti       3.36452527       0.69639476      40.55363678  F       0.00209272       0.00600180       0.00342180
Ti       6.72276706       3.11073617      40.54098949  F       0.00650689       0.00405016      -0.00310163
Ti       3.91301185       3.44120788      41.33776154  F       0.00560087       0.00304404       0.01186277
Ti       0.63072090       0.97890897      41.35555155  F       0.00038497       0.01074205       0.00876532
Ti       5.93761376       5.26509326      42.29740916  F      -0.00141548      -0.00985522      -0.00218276
Ti       5.62246151       1.09283996      42.31092494  F      -0.00823769      -0.00352940       0.00058148
Ti       3.23108618       5.47206902      43.20537204  F       0.00009630      -0.00293515       0.00427581
Ti       2.73075154       1.41696416      43.21866548  F      -0.00375429      -0.00259396       0.00672253
Ti       4.80847059       3.25845132      44.02127500  F      -0.00270681       0.01230777       0.01379661
Ti       4.45190977      -0.88529148      44.03916064  F       0.00847197       0.00511105       0.00796181
Ti       6.41443923       0.93558654      45.17057811  F      -0.00749640      -0.00225577      -0.00883588
Ti       1.62745910      -0.65215814      45.18507265  F       0.00044017      -0.00777350      -0.01067990
Ti       6.97431570       3.66124088      45.80344509  F      -0.01275204      -0.01487966      -0.01804332
Ti       3.70621340       1.19207282      45.82042716  F      -0.00542685      -0.01737562      -0.02145737
Ti       4.36665482       3.76140504      46.77231910  F       0.01884234       0.00312093      -0.00840338
Ti       5.09791194      -1.01245208      46.79064467  F      -0.00444676       0.01988504      -0.01204010
Ti       5.74539898       1.47741080      48.05429223  F       0.04620555      -0.02988500      -0.00100147
Ti       2.42477369      -0.95636863      48.07131777  F      -0.04512098       0.02271619      -0.00102603
Ti       3.45018219       5.88685301      48.39912875  F      -0.01406366      -0.07526467       0.02290009
Ti       2.96727110       1.81846028      48.41521404  F      -0.05845427      -0.05233917       0.02018783
Ti       4.67667103       3.67019232      49.58121352  F       0.01184384       0.03005176       0.39373950
Ti       4.85757585      -0.78596225      49.59607947  F       0.02182104       0.02465712       0.39606448
Ti       2.13042466       3.60841789      50.92228494  F       0.16691453      -0.01878715       0.48430369
Ti       1.64995334      -0.46542979      50.93782883  F      -0.09850679       0.13333117       0.48379262
Ti       7.09347197       3.83807217      51.04701628  F       0.48652240      -0.13309363       0.17240922
Ti       3.79431202       1.39211726      51.06218758  F      -0.35765906       0.34889646       0.17716300
Ti       4.60006229       3.73418423      52.37046011  F       0.14848135      -0.21305583       0.15351934
Ti       4.95153599      -0.81919527      52.38587757  F      -0.25952407       0.02242987       0.15258869
Ti       3.46728780       5.94147495      53.73732458  F       0.05106385      -0.08544477      -1.41222514
Ti       3.00356057       1.85862140      53.75311320  F      -0.09999840       0.00261355      -1.41209974
