52
Lattice="4.6568 0.0 0.0 0.0 7.770572 0.0 0.0 0.0 41.044546" Properties=species:S:1:pos:R:3:move_mask:L:1:forces:R:3 job_name=BondOrder-VacuumGB-CSL7-Al-Al-36-d-5.61 top_level=BondOrder-VacuumGB solute=Al energy=-388.40060712 stress_kbar_3x3="_JSON [[-22.49802207, -0.19785772, -1.13409276], [-0.19785775, -26.4167711, -0.23751249], [-1.13409277, -0.23751252, -19.74842639]]" pbc="T T T"
Ti       1.81787036       7.39573515       8.22257703  F       1.06442481      -0.11624170       0.82218939
Ti       4.62504062       5.61286288       8.87551367  F      -0.09319872      -0.11330720       0.01935376
Ti       2.46475576       2.28387990       9.10733327  F      -0.59568826       0.29981884       0.71757827
Ti       4.56667229       0.63525203       9.58952459  F      -0.29748869      -0.37210595       0.24500689
Ti       2.35622438       5.00527408      10.33366221  F      -0.06301202       0.04034472      -0.37916600
Ti       0.02566828       3.33994726      10.52472457  F       0.00784129       0.26983806       0.04926523
Ti       2.31082058       0.01118185      11.15923221  F      -0.04146890       0.18092553      -0.47864264
Ti       0.02949617       6.10638745      11.60029690  F      -0.01362540      -0.02170704      -0.21580637
Ti       2.34382332       2.76344075      12.11048061  F       0.01071850      -0.07670108      -0.20258880
Ti       0.00498743       1.11671667      12.50972091  F      -0.04121924      -0.08061893       0.09722327
Ti       2.34413067       5.56839190      13.13076593  F       0.04602822       0.03435764      -0.04438425
Ti       0.00898297       3.87309397      13.46343198  F       0.00219369       0.01445795      -0.03397252
Ti       2.33718738       0.56625712      14.09408143  F      -0.00631203      -0.00736260      -0.01070832
Ti       0.01529759       6.64143018      14.43450489  F       0.02943163       0.01714819      -0.04355849
Ti       2.33503128       3.32451490      15.05000890  F       0.02728086      -0.01503470      -0.02876013
Ti       0.01467823       1.67436400      15.44498057  F      -0.00108954      -0.04495586      -0.01678122
Ti       2.35779838       6.10818245      15.96468661  F       0.00001450      -0.00247791      -0.02292187
Ti       4.64141393       4.42728340      16.39828120  F      -0.01418921       0.02153536      -0.01383822
Ti       2.35485994       1.11060123      17.02938214  F      -0.00443874       0.01172066      -0.01974835
Ti       0.02865329       7.20471118      17.23522053  F       0.00714859       0.00429003       0.00900178
Ti       2.23603237       3.82635398      17.97340669  F      -0.00161501      -0.00352639       0.00424761
Ti       0.13314257       2.16442290      18.43359814  F       0.00526908      -0.00941588       0.00596593
Ti       2.30366774       6.62466906      18.69139894  F       0.00323452      -0.01297538       0.00843203
Ti       4.14633090       4.82046657      19.35180568  F      -0.00197677      -0.00997918      -0.00099752
Ti       2.70492091       1.65394294      20.04168241  F      -0.00315350      -0.01776763      -0.00810464
Ti       0.39075674       7.65103729      20.08108518  F      -0.01191930      -0.01010956      -0.00005052
Ti       1.25899848       4.82904528      20.77428651  F      -0.00729968      -0.00775517       0.00236962
Ti       3.11375535       6.58214072      21.42796195  F      -0.00378781       0.00473289       0.00240112
Ti       0.60428965       2.18574535      21.65132637  F       0.01040301      -0.00072247       0.00389162
Ti       3.17540672       3.82867738      22.15995039  F       0.00918854       0.00333226      -0.00969913
Ti       0.72824901       7.19172655      22.90626337  F       0.00414286      -0.00835184       0.00717563
Ti       3.02300363       1.09884436      22.97550551  F       0.00448572      -0.01833849       0.02617501
Ti       0.79276432       4.42356906      23.73930347  F      -0.00568357      -0.00586238       0.00514253
Ti       3.05999259       6.06659435      24.18242039  F       0.00090540       0.01621063       0.00050147
Ti       0.73768834       1.61946491      24.62828729  F      -0.01587832      -0.02230767       0.00205160
Ti       3.08082246       3.23316406      25.01546050  F      -0.01092407      -0.01564572       0.00845109
Al       0.73566264       6.64296876      25.66774042  F      -0.00477810      -0.00476007       0.01888523
Ti       3.06631653       0.47129296      25.98329089  F       0.00612080      -0.01427856      -0.01336972
Ti       0.74703454       3.87655965      26.58586587  F       0.00608856       0.03964691       0.01654352
Ti       3.05833943       5.56731956      26.91163643  F      -0.01084103       0.00634162      -0.01556920
Ti       0.73706433       1.10050726      27.57425958  F       0.07975181       0.02119623      -0.00245634
Ti       3.06242344       2.74978008      27.93705232  F      -0.02527784      -0.03735208       0.00793462
Ti       0.72203218       6.14483624      28.44001219  F       0.00124594      -0.05675825       0.06903762
Ti       3.10699368       0.01167140      28.97999424  F       0.02330666       0.03396176       0.26172960
Ti       0.71734744       3.35736111      29.52395761  F      -0.01050246      -0.00397837       0.27029755
Ti       3.04494182       5.00612108      29.69051637  F       0.07244759       0.23752909       0.45609473
Ti       0.83759533       0.66067734      30.50759015  F      -0.16714655       0.15648176       0.05163406
Ti       2.94995241       2.29952206      30.93666983  F       0.34102186       0.13222961      -0.19224166
Ti       0.78251470       5.63507894      31.15794098  F      -0.10606704      -0.24725404       0.22363296
Ti       3.58918669       7.41484298      31.86382508  F      -1.25855489      -0.14089377      -0.10194818
Ti       0.37687948       2.83482122      32.55029512  F       0.35493007      -0.12939576      -1.27373831
Ti       2.71338697       4.58790889      32.53539595  F       0.69951215       0.08184190      -0.28316133
