64
Lattice="5.872 0.0 0.0 0.0 6.890708 0.0 0.0 0.0 43.394398" Properties=species:S:1:pos:R:3:move_mask:L:1:forces:R:3 job_name=BondOrder-VacuumGB-T1g-V-V-43-d-4.72 top_level=BondOrder-VacuumGB solute=V energy=-484.86296996 stress_kbar_3x3="_JSON [[-18.80714586, 0.00024801, -0.0004706], [0.000248, -21.93040005, -1.40815847], [-0.00047062, -1.40815846, -23.21260368]]" pbc="T T T"
Ti       4.40620787       5.10374069       8.21100120  F      -0.00880565      -0.10428160       1.15470162
Ti       1.46587434       5.10376826       8.21100120  F       0.00889632      -0.10448054       1.15461528
Ti       0.00011744       3.00257778       9.37765959  F      -0.00003707       0.33581494      -0.17858176
Ti       2.93601762       3.00226769       9.38126133  F      -0.00015838       0.34861259      -0.16963283
Ti       0.00001762       6.75202561      10.00184461  F       0.00012009      -0.46852327      -0.32885679
Ti       2.93601762       6.75122629       9.99698444  F      -0.00003017      -0.47365866      -0.31156629
Ti       4.40878568       1.82145530      11.43581249  F      -0.00556970       0.08803138      -0.10243567
Ti       1.46334938       1.82144841      11.43581249  F       0.00546389       0.08784881      -0.10258975
Ti       1.46699589       4.65512804      11.40096679  F       0.00297908       0.33126817      -0.21325280
Ti       4.40497475       4.65511426      11.40101019  F      -0.00291090       0.33141253      -0.21334441
Ti       5.87197651       6.74039410      12.83519504  F      -0.00001099      -0.11870010      -0.02464498
Ti       2.93601762       6.74005645      12.83055184  F       0.00008311      -0.11511128      -0.02067574
Ti       2.93597651       3.06012897      13.45182944  F       0.00013810      -0.07510435      -0.07462040
Ti       0.00009395       3.06311954      13.45634245  F      -0.00010507      -0.07930339      -0.07610816
Ti       4.40187434       5.14788946      14.64495841  F       0.00263162      -0.01707932       0.00775951
Ti       1.47013741       5.14795148      14.64491501  F      -0.00270814      -0.01738476       0.00780835
Ti       4.40354786       1.07560507      15.03858899  F       0.00172386       0.02949866       0.05658189
Ti       1.46845802       1.07561196      15.03858899  F      -0.00171909       0.02945194       0.05649647
Ti       2.93595890       3.23081870      16.27268228  F       0.00016798       0.03040176      -0.01577960
Ti       0.00002349       3.23384372      16.27459163  F      -0.00022789       0.02647107      -0.01637086
Ti       2.93600000       6.19213491      16.87434561  F       0.00008638      -0.00233118      -0.02986093
Ti       0.00000587       6.19246567      16.87877183  F      -0.00006434      -0.00105359      -0.02688696
Ti       4.40685966       1.45898339      18.03892107  F       0.00028418       0.02379922       0.01774407
Ti       1.46514621       1.45896960      18.03887767  F      -0.00031657       0.02389464       0.01787931
Ti       4.40561480       4.28535887      18.54442241  F       0.00228700       0.00117673       0.00583700
Ti       1.46639107       4.28533131      18.54446580  F      -0.00228681       0.00129175       0.00573051
Ti       2.93599413       6.45334787      19.71225245  F       0.00019952       0.00682202       0.00094701
Ti       0.00004698       6.45534618      19.72075775  F      -0.00024339       0.00696378       0.00328285
Ti       2.93594128       2.49294101      20.30272002  F       0.00046835      -0.00426103      -0.00302830
Ti       0.00007046       2.49449831      20.32710767  F      -0.00047295      -0.00417368      -0.01231870
Ti       1.47413037       4.66210833      21.50595989  F       0.00132065      -0.00491348       0.00077458
Ti       4.39788725       4.66209455      21.50595989  F      -0.00134426      -0.00486703       0.00080548
Ti       4.40484557       0.60990346      21.98308129  F      -0.00631651       0.00967020      -0.00388847
Ti       1.46719554       0.60983455      21.98308129  F       0.00626603       0.00990557      -0.00372971
Ti       0.00003523       2.72236714      23.17291229  F      -0.00034153      -0.00244717      -0.00243869
Ti       2.93597064       2.73441898      23.13672136  F       0.00035622       0.00066342       0.01013069
Ti       0.00001762       5.80996247      23.71178393  F      -0.00017670      -0.00583913      -0.00040717
Ti       2.93597064       5.79520946      23.76008189  F       0.00024165      -0.01118235       0.00985371
Ti       4.34516843       3.91235106      25.26426191  F       0.00822884      -0.01942972      -0.00229886
Ti       1.52685506       3.91230972      25.26421852  F      -0.00819316      -0.01944428      -0.00202597
Ti       4.39055899       1.01483591      25.10509126  F      -0.00150116       0.00846087      -0.00395184
Ti       1.48133531       1.01487036      25.10513465  F       0.00164391       0.00844521      -0.00407035
Ti       0.00010570       5.87760855      26.50781517  F      -0.00009503       0.00229615       0.01350821
V        2.93581210       5.89896974      26.55251140  F       0.00005030      -0.01745526       0.02098579
Ti       2.93604698       2.53617331      27.17031745  F       0.00008609      -0.01529695      -0.01933295
Ti       5.87198238       2.54039732      27.12952671  F      -0.00019631      -0.00321668      -0.02027861
Ti       4.38344800       0.47217887      28.29883216  F       0.00159353       0.02254092       0.00467612
Ti       1.48852851       0.47226156      28.29883216  F      -0.00152666       0.02253843       0.00486713
Ti       1.48526955       4.55586050      28.63657076  F      -0.00216910       0.04257329      -0.02652188
Ti       4.38677155       4.55581916      28.63652737  F       0.00220367       0.04264571      -0.02656850
Ti       2.93604698       2.41228528      29.93688390  F      -0.00016321      -0.10215100       0.06291729
Ti       5.87198826       2.42479880      29.91293019  F       0.00007610      -0.10839474       0.06437795
Ti       2.93598826       6.33101024      30.53390403  F      -0.00005765       0.11601229       0.10783850
Ti       0.00002349       6.33404904      30.50804096  F       0.00003398       0.12061842       0.09036196
Ti       4.40780506       4.19330590      31.67721623  F       0.00656604       0.01236385       0.25860157
Ti       1.46416558       4.19332657      31.67721623  F      -0.00645562       0.01211899       0.25851955
Ti       4.40720024       1.37477893      32.18736077  F       0.00692856      -0.26333884       0.37176758
Ti       1.46487610       1.37479961      32.18736077  F      -0.00695812      -0.26318793       0.37164447
Ti       2.93601762       6.11269194      33.35931328  F       0.00009543       0.40945104       0.06705908
Ti       0.00005285       6.11359462      33.34234607  F      -0.00010262       0.37448504       0.04237017
Ti       0.00002349       3.18133652      33.95702772  F       0.00004125      -0.34382594       0.11129685
Ti       2.93598238       3.17753285      33.95789561  F       0.00003170      -0.36249307       0.08756819
Ti       1.46651438       1.02460694      35.16491079  F       0.01552530       0.10774008      -1.20652140
Ti       4.40554434       1.02462761      35.16495418  F      -0.01555401       0.10764084      -1.20671941
