64
Lattice="5.871999 0.0 0.0 0.0 6.890708 0.0 0.0 0.0 43.401158" Properties=species:S:1:pos:R:3:move_mask:L:1:forces:R:3 job_name=BondOrder-VacuumGB-T1m-Al-Al-34-d-0.00 top_level=BondOrder-VacuumGB solute=Al energy=-481.93271301 stress_kbar_3x3="_JSON [[-17.68266313, 0.00073827, -0.00054561], [0.00073827, -25.344465, 0.48978434], [-0.00054565, 0.48978436, -18.73602738]]" pbc="T T T"
Ti       2.93604060       0.10156904      34.54454409  F      -0.00014201      -0.29388927      -0.19912819
Ti       2.93601712       2.93851486      34.54476110  F       0.00001610       0.13271054      -0.98247260
Ti       0.00003523       0.09973611      34.54454409  F      -0.00001354      -0.28913168      -0.19765542
Ti       0.00002936       2.93817722      34.54476110  F      -0.00000637       0.13105532      -0.98537908
Ti       4.40466279       5.02641317       8.55814414  F       0.00081129      -0.02248589       0.94195202
Ti       1.46738906       5.02642695       8.55814414  F      -0.00074784      -0.02255839       0.94186852
Ti       4.40386419       1.31772387       9.17635024  F       0.00094691      -0.26014461       0.17347333
Ti       1.46819353       1.31770320       9.17630684  F      -0.00094668      -0.25997684       0.17370345
Ti       2.93602886       3.40805460      10.35838078  F       0.00009099       0.14155968      -0.25028305
Ti       0.00004698       3.40716570      10.35651453  F      -0.00014432       0.13198411      -0.24918852
Ti       2.93602886       6.22651266      10.76965015  F       0.00004689       0.13400565      -0.55499966
Ti       0.00003523       6.22567199      10.77021436  F      -0.00005236       0.13414343      -0.55078035
Ti       1.46725401       1.48450657      11.99334580  F      -0.00096471      -0.03269653      -0.01235874
Ti       4.40478610       1.48450657      11.99334580  F       0.00092373      -0.03266564      -0.01238781
Ti       1.46700151       4.43658235      12.59675210  F       0.00166004      -0.00257964       0.05660826
Ti       4.40505621       4.43657546      12.59670870  F      -0.00166946      -0.00255255       0.05669622
Ti       2.93602886       6.58562879      13.75938232  F      -0.00002614       0.04252465      -0.10642579
Ti       0.00000587       6.58253487      13.76268081  F       0.00002346       0.04156646      -0.10774446
Ti       2.93601712       2.51604556      14.26444159  F      -0.00002208       0.00765523       0.04923586
Ti       0.00000587       2.51260709      14.25667279  F       0.00012068       0.00814059       0.04164773
Ti       4.39557293       4.65979305      15.42585658  F      -0.00036094      -0.02929697      -0.00308583
Ti       1.47646717       4.65977927      15.42589998  F       0.00023199      -0.02927939      -0.00302132
Ti       4.40253125       0.73319200      16.03013090  F      -0.00097723       0.00215165      -0.01824058
Ti       1.46947362       0.73319889      16.03008750  F       0.00107146       0.00220552      -0.01852963
Ti       5.87198726       2.87775949      17.26485045  F      -0.00002772      -0.00989525       0.00345341
Ti       2.93601124       2.87521682      17.28147309  F       0.00002070      -0.01017755      -0.00072409
Ti       5.87195202       5.69607974      17.61475058  F      -0.00008592       0.01709050       0.03051078
Ti       2.93610520       5.70540286      17.66053881  F       0.00006075       0.01419024       0.02307250
Ti       1.44107663       0.89513742      18.85810696  F       0.00086342       0.00036206      -0.01010268
Ti       4.43082254       0.89523389      18.85823716  F      -0.00088587       0.00042800      -0.01002156
Ti       1.50538677       4.13009054      19.45652213  F       0.00622596       0.00903259      -0.01819241
Ti       4.36670031       4.13003542      19.45656553  F      -0.00611003       0.00891909      -0.01818741
Ti       2.93553561       2.09137122      20.84462136  F      -0.00021273       0.01006112       0.00250447
Ti       0.00025837       2.21559691      20.84462136  F       0.00017465       0.00939810      -0.00688326
Al       2.93606996       6.19338902      20.84444776  F      -0.00014343       0.01093257       0.00207659
Ti       0.00005285       6.25562590      20.84444776  F       0.00005716       0.00879109      -0.00101757
Ti       4.36662985       4.13018701      22.23215638  F       0.00244855       0.00482790       0.01433102
Ti       1.50542787       4.13025592      22.23219978  F      -0.00229521       0.00473167       0.01424108
Ti       4.43088713       0.89509608      22.83061495  F       0.00106748      -0.00324400       0.00623328
Ti       1.44102379       0.89501339      22.83078856  F      -0.00119133      -0.00328357       0.00611417
Ti       2.93607584       5.70538908      24.02787930  F       0.00019412      -0.00031420       0.00506328
Ti       5.87194615       5.69599705      24.07371092  F      -0.00014573      -0.00007957       0.00247253
Ti       2.93601124       2.87518237      24.40694501  F       0.00005618      -0.00183325      -0.00799056
Ti       5.87199313       2.87771126      24.42361105  F      -0.00005699      -0.00046096      -0.01178023
Ti       4.40253125       0.73321957      25.65841740  F      -0.00198668       0.00298502      -0.00915755
Ti       1.46950298       0.73321957      25.65850420  F       0.00200126       0.00305061      -0.00905538
Ti       4.39555532       4.65975860      26.26264832  F       0.00000246       0.01726743      -0.01915790
Ti       1.47646130       4.65974482      26.26260492  F       0.00002539       0.01725971      -0.01916424
Ti       0.00002936       2.51265533      27.43191892  F      -0.00007005      -0.02539467       0.01751418
Ti       2.93602299       2.51609379      27.42410671  F       0.00004698      -0.02653001       0.01457942
Ti       0.00000587       6.58252798      27.92595430  F      -0.00002889       0.00858191      -0.01956942
Ti       2.93602299       6.58564258      27.92920939  F       0.00005973       0.01070937      -0.01868845
Ti       1.46700151       4.43665125      29.09192641  F       0.00235215      -0.03325141      -0.02541022
Ti       4.40502685       4.43664436      29.09196981  F      -0.00240244      -0.03322394      -0.02572575
Ti       1.46725988       1.48452035      29.69524591  F      -0.00008614       0.01292135      -0.00791749
Ti       4.40479784       1.48452724      29.69524591  F       0.00006473       0.01290832      -0.00782294
Ti       2.93602299       6.22656778      30.91907176  F      -0.00000801       0.00958179       0.04393682
Ti       0.00001174       6.22573401      30.91850755  F       0.00007172       0.01085690       0.04131263
Ti       2.93602299       3.40809594      31.33021093  F      -0.00004448       0.01741280      -0.05705752
Ti       0.00004110       3.40724838      31.33212058  F       0.00002579       0.01345751      -0.05239702
Ti       4.40387594       1.31788925      32.51202446  F      -0.00076576      -0.06478904       0.69134708
Ti       1.46818178       1.31787547      32.51202446  F       0.00080033      -0.06474729       0.69136594
Ti       4.40466866       5.02629603      33.13027396  F      -0.00382969       0.20450309       0.28116559
Ti       1.46737732       5.02630292      33.13027396  F       0.00388774       0.20451854       0.28122452
