52
Lattice="4.6568 0.0 0.0 0.0 7.770572 0.0 0.0 0.0 41.044546" Properties=species:S:1:pos:R:3:move_mask:L:1:forces:R:3 job_name=BondOrder-VacuumGB-CSL7-Al-Al-26-d-0.72 top_level=BondOrder-VacuumGB solute=Al energy=-387.81728338 stress_kbar_3x3="_JSON [[-20.11599131, 1.66864102, 4.25679912], [1.66864098, -26.55458122, 3.6799143], [4.25679911, 3.67991425, -18.98421986]]" pbc="T T T"
Ti       1.82934471       7.38508169       9.20444466  F       1.14188288      -0.14319784       0.15982226
Ti       4.59688095       5.60172765       9.86784766  F       0.08528760      -0.29731358      -0.26290441
Ti       2.43627943       2.26820666      10.09773816  F      -0.38915826       0.14295565       0.21163617
Ti       4.53296637       0.61859193      10.55829901  F       0.18792071       0.11060785      -0.03820943
Ti       2.28242807       4.97249004      11.32217906  F      -0.03669014       0.22051962      -0.47684503
Ti       4.60966853       3.31589734      11.50971159  F      -0.00087718       0.00860215      -0.31786066
Ti       2.22094900       7.74202292      12.12669320  F      -0.02153567       0.01577979      -0.24985330
Ti       4.59135333       6.06907316      12.59020926  F      -0.03294116      -0.07138412      -0.04404924
Ti       2.23462602       2.71683286      13.09226615  F       0.01170891      -0.02056423       0.00389598
Ti       4.55130951       1.06807289      13.47377520  F      -0.08155647       0.02354818      -0.00673954
Ti       2.23016480       5.51115386      14.12002158  F       0.01308126      -0.00169981      -0.00197908
Ti       4.53585359       3.82130311      14.43130342  F      -0.00818243       0.03791691      -0.03264269
Ti       2.20365364       0.49419284      15.06347152  F      -0.01465571      -0.01236511       0.01634497
Ti       4.53263574       6.57541917      15.41481283  F       0.01675624      -0.02314579      -0.01169825
Ti       2.15865498       3.25161917      16.02797730  F       0.00262521      -0.01251455      -0.00994785
Ti       4.50828533       1.59447475      16.37008359  F      -0.01060630       0.00338736       0.00034667
Ti       2.18199486       6.02145510      16.97590109  F       0.00386701       0.00076709      -0.00398238
Ti       4.41274177       4.33269222      17.35777955  F      -0.00859995      -0.00788995      -0.00008841
Ti       2.15262443       1.04781501      17.97328356  F       0.00417636      -0.00435441      -0.00442029
Ti       4.47195764       7.12259954      18.17920405  F      -0.00427095      -0.00395070       0.00273899
Ti       1.87533527       3.76469449      19.03863580  F      -0.00291260      -0.00078017      -0.02060951
Ti       4.48897824       2.09007406      19.30936562  F       0.00182195       0.00823233      -0.00508229
Ti       2.16334904       6.60334661      19.68890454  F      -0.00997571       0.00075192       0.00546242
Ti       3.90582580       4.75524816      20.19962182  F       0.00743875      -0.00493951       0.00174276
Ti       2.58098949       1.54207001      21.04259471  F      -0.00415962      -0.00319438       0.01662659
Ti       0.24898513       7.61493521      20.95656534  F      -0.01008103       0.00252658      -0.00391976
Al       1.23902081       4.95074021      21.81960901  F       0.00035121      -0.01018351      -0.00139041
Ti       3.30695667       6.58882341      22.42275861  F       0.00402152       0.00314449      -0.01277486
Ti       0.60225463       2.22200283      22.42000863  F      -0.00751537       0.00005685       0.00255690
Ti       3.40976018       3.85961980      23.08644892  F       0.02313358      -0.00463568       0.00933496
Ti       0.98807517       7.24346302      23.75982574  F      -0.00698293       0.00440905      -0.01062387
Ti       3.23807794       1.18041982      24.03092497  F       0.00288389       0.00041041       0.01180756
Ti       1.03449415       4.49529921      24.64187304  F       0.00984338       0.01670520       0.02685862
Ti       3.31606071       6.16756516      25.09562049  F       0.00081252      -0.00226483       0.00889892
Ti       0.91270020       1.75516241      25.55991640  F      -0.00160083      -0.04089702       0.01246022
Ti       3.27136940       3.37786765      26.01054447  F      -0.02323082       0.00304772       0.01916041
Ti       0.95048082       6.71249983      26.59961579  F      -0.03461672       0.01972976       0.03922893
Ti       3.25887986       0.63344926      26.94767354  F       0.00570817      -0.00679439       0.00969302
Ti       0.90830418       3.92714607      27.57988268  F       0.01307633       0.02725357       0.02188152
Ti       3.21957647       5.62963177      27.91583229  F      -0.01980385       0.04258693       0.05072051
Ti       0.90480227       1.17641021      28.51939234  F       0.05387690      -0.09774273      -0.07415387
Ti       3.21215819       2.81707324      28.93279301  F      -0.00260072      -0.07247619       0.22603167
Ti       0.86248593       6.15909524      29.43296185  F       0.02668592      -0.02643034       0.22444272
Ti       3.23024054       0.06560694      29.86791090  F       0.04361575       0.18490400       0.46573406
Ti       0.84878097       3.38026876      30.50475808  F      -0.03722334       0.30154706      -0.05797608
Ti       3.16637719       5.05672304      30.70415248  F       0.03038820       0.03633270       0.37045482
Ti       0.92777892       0.65680760      31.44874159  F       0.31051575      -0.34935223      -0.23917833
Ti       3.02312936       2.31085932      31.91275018  F       0.64688838       0.27657296      -0.64089797
Ti       0.84768662       5.62434778      32.16665174  F       0.19002253      -0.08345304       0.00374817
Ti       3.62142106       7.41381727      32.80854740  F      -0.99819825      -0.07125800      -0.88411060
Ti       0.40270609       2.82282346       8.48842256  F      -0.34937640      -0.09428040       1.23379378
Ti       2.73388620       4.57260863       8.48776585  F      -0.72103854      -0.02523359       0.25651452
