64
Lattice="5.872 0.0 0.0 0.0 6.890708 0.0 0.0 0.0 43.394398" Properties=species:S:1:pos:R:3:move_mask:L:1:forces:R:3 job_name=BondOrder-VacuumGB-T1g-V-V-34-d-1.29 top_level=BondOrder-VacuumGB solute=V energy=-486.04971453 stress_kbar_3x3="_JSON [[-18.53191097, -0.00109738, -0.00153099], [-0.00109736, -27.51717211, -0.81252269], [-0.00153102, -0.81252272, -19.75255304]]" pbc="T T T"
Ti       4.40336582       5.21555621      34.64647791  F       0.00468121      -0.28075319      -0.45269440
Ti       1.46866941       5.21554243      34.64652131  F      -0.00465961      -0.28088978      -0.45288273
Ti       5.87192954       3.19116267       8.54487770  F       0.00030762       0.16045298       0.97493842
Ti       2.93605872       3.19150032       8.54574559  F      -0.00026134       0.16359732       0.96961743
Ti       0.00003523       6.63290594       9.16854199  F      -0.00014966      -0.20449122       0.15555458
Ti       2.93595890       6.63376039       9.17036455  F       0.00030711      -0.20455406       0.14615299
Ti       4.40370053       1.76910659      10.45926496  F       0.00090887       0.03369244      -0.51815939
Ti       1.46827011       1.76914793      10.45930836  F      -0.00096443       0.03381764      -0.51846364
Ti       1.46834058       4.59490325      10.67615016  F       0.00153451       0.12483633      -0.35564346
Ti       4.40366530       4.59488258      10.67615016  F      -0.00155273       0.12494570      -0.35556883
Ti       5.87198238       6.72506227      11.99221546  F       0.00001312      -0.09680954       0.01766064
Ti       2.93597651       6.72848006      11.99330032  F       0.00014859      -0.10089215       0.01575748
Ti       2.93599413       2.87571295      12.60858949  F       0.00006253      -0.06355800       0.11225993
Ti       5.87192954       2.87620219      12.60008419  F       0.00007439      -0.06138054       0.11727746
Ti       4.40130475       5.00671264      13.76413892  F       0.00316676       0.06084416      -0.08368343
Ti       1.47065414       5.00671264      13.76418231  F      -0.00318605       0.06081284      -0.08380074
Ti       4.40211509       0.93652301      14.24455830  F      -0.00219051       0.01581023       0.03947474
Ti       1.46983794       0.93655058      14.24451490  F       0.00229349       0.01585440       0.03960127
Ti       2.93601762       3.09846198      15.44037772  F      -0.00001958      -0.02669189      -0.02433888
Ti       5.87198238       3.09787627      15.42805372  F       0.00001533      -0.02448169      -0.02851308
Ti       2.93600587       6.02602751      16.04455793  F       0.00002138      -0.00123284      -0.04387515
Ti       5.87198826       6.02322299      16.02181926  F      -0.00007830      -0.00369979      -0.04063415
Ti       4.41192720       1.29430236      17.20908999  F      -0.00330606      -0.00021557       0.01274760
Ti       1.46007867       1.29428168      17.20904660  F       0.00349855      -0.00002893       0.01295475
Ti       4.40722960       4.12545999      17.70808218  F      -0.00103012       0.00993396       0.03315417
Ti       1.46482912       4.12543243      17.70803878  F       0.00109205       0.00970841       0.03335512
Ti       2.93592366       6.24175490      18.88997200  F      -0.00014933      -0.00508848      -0.00758285
Ti       0.00017616       6.25811344      18.85920537  F       0.00022228      -0.00367413       0.00544528
Ti       2.93617029       2.39345297      19.42888703  F      -0.00010332      -0.00715983      -0.02030117
Ti       5.87190605       2.37198841      19.48564690  F       0.00018213      -0.00736975      -0.01359589
Ti       1.45491718       4.49039878      20.79047305  F      -0.00076192      -0.00863855      -0.01242865
Ti       4.41715328       4.49060550      20.79047305  F       0.00086022      -0.00842082      -0.01233953
Ti       4.45579104       0.48817221      21.02545372  F      -0.00279370       0.00346067      -0.01306727
Ti       1.41637925       0.48867523      21.02549711  F       0.00254215       0.00366171      -0.01279829
V        5.87084909       2.47838095      22.26905038  F      -0.00033265      -0.00114273      -0.00383942
Ti       2.93709219       2.47584517      22.21723747  F      -0.00001890       0.00198346       0.00206134
Ti       0.00042866       5.92279092      22.88277735  F       0.00012877      -0.00109114      -0.00923545
Ti       2.93572402       5.93177640      22.84593550  F      -0.00018773      -0.00259512       0.00019120
Ti       4.43092312       3.87920676      24.04939234  F      -0.00500514      -0.00258027       0.01294018
Ti       1.44098293       3.87876575      24.04917537  F       0.00487219      -0.00241792       0.01271106
Ti       4.41937290       1.06178920      24.31639807  F      -0.00138069       0.00146458       0.01304421
Ti       1.45289134       1.06177541      24.31618110  F       0.00104956       0.00138607       0.01275505
Ti       0.00018790       5.81365589      25.65589635  F      -0.00027799      -0.00112838      -0.00262686
Ti       2.93584733       5.82638302      25.63168228  F       0.00018048      -0.00651170       0.00184809
Ti       2.93609395       2.80892821      26.22635911  F       0.00016422       0.00788449      -0.00763581
Ti       5.87197651       2.80224422      26.25387116  F      -0.00020488       0.00867205      -0.01195240
Ti       4.39835701       0.66990085      27.39948326  F       0.00063974      -0.01143760       0.00620102
Ti       1.47362538       0.66990085      27.39943987  F      -0.00060384      -0.01138499       0.00633647
Ti       1.47136466       4.73767183      27.90103572  F      -0.00152148       0.00422531      -0.02426424
Ti       4.40069994       4.73762360      27.90099232  F       0.00156762       0.00456033      -0.02424964
Ti       2.93601174       2.57653219      29.06413577  F      -0.00000418      -0.03900717      -0.02554446
Ti       0.00001174       2.57751067      29.08240481  F      -0.00003621      -0.03924190      -0.02706098
Ti       2.93595890       6.54414673      29.67912117  F       0.00013541       0.03806139       0.01904202
Ti       0.00001174       6.54001231      29.67781934  F      -0.00005335       0.03249772       0.01547220
Ti       4.40189782       4.37881065      30.86348448  F       0.00216621       0.01786538       0.02480742
Ti       1.47008456       4.37881754      30.86352787  F      -0.00213104       0.01775568       0.02469433
Ti       4.40160422       1.56338450      31.34533587  F      -0.00213333       0.00987089      -0.02841039
Ti       1.47038990       1.56341207      31.34537927  F       0.00225800       0.00960058      -0.02867220
Ti       2.93601174       6.32246576      32.50444364  F       0.00004573      -0.07513151       0.73979130
Ti       0.00002936       6.32224526      32.50466061  F      -0.00013947      -0.07945968       0.73852599
Ti       5.87198826       3.28060406      33.11634804  F      -0.00011548       0.28071759       0.23230349
Ti       2.93600000       3.28175481      33.11908189  F       0.00016114       0.28141105       0.23353695
Ti       1.46815854       1.15042437      34.43523398  F      -0.00367421       0.06187558      -0.76912565
Ti       4.40382971       1.15043126      34.43527738  F       0.00372586       0.06189993      -0.76922514
