100
Lattice="4.4265 -2.555641 0.0 3.767997 6.526363 -0.031456 0.0 0.0 61.781652" Properties=species:S:1:pos:R:3:move_mask:L:1:forces:R:3 job_name=BondOrder-VacuumGB-CSL13-V-V-65-d-6.97 top_level=BondOrder-VacuumGB solute=V energy=-764.76782629 stress_kbar_3x3="_JSON [[-33.76080695, -1.82468255, -0.66360661], [-1.82468252, -37.22558393, 0.37111131], [-0.66360663, 0.37111133, -18.77812936]]" pbc="T T T"
Ti       2.45149509      -0.91872386      52.84925710  F       0.11885372      -0.32093364      -1.05305597
Ti       5.74002124       1.53297889      52.83532285  F      -0.34676031      -0.04300245      -1.06022798
Ti       4.95244088      -0.82728829       8.45674088  F       0.09967683      -0.00245219       0.44703932
Ti       4.57747380       3.74324897       8.44137221  F      -0.04441929       0.08689826       0.44912020
Ti       7.07974970       3.82961790       9.72596208  F       0.23456881      -0.06204969       0.24667315
Ti       3.78527635       1.38173165       9.74094524  F      -0.16269611       0.16742714       0.25129668
Ti       1.63773619      -0.47352608       9.93148593  F      -0.04441249      -0.10556500       0.43066183
Ti       2.11930723       3.59609283       9.91490475  F      -0.05331937      -0.08636506       0.43524019
Ti       4.68582945       3.63249914      11.23271789  F       0.00118624      -0.06524369      -0.86359784
Ti       4.81553048      -0.79306610      11.24881576  F      -0.06493036      -0.02133100      -0.86291521
Ti       3.42987321       5.84897805      12.35731325  F      -0.02835648       0.00199348      -0.07225532
Ti       2.93876574       1.78102750      12.37440255  F       0.01041372      -0.01834818      -0.07514711
Ti       2.39714725      -0.98755625      12.80757149  F      -0.05583384       0.03211148      -0.03604630
Ti       5.72925254       1.44079605      12.79202437  F       0.05282051      -0.03185481      -0.03483028
Ti       4.29652646       3.73116530      14.03114117  F       0.01785840       0.02467485       0.02515587
Ti       5.09877041      -1.08272758      14.04686848  F       0.01370527       0.02874133       0.02556204
Ti       6.92744125       3.59181811      14.95460871  F      -0.00860344      -0.00454016       0.00068870
Ti       3.66354031       1.12507131      14.97077009  F      -0.00218692      -0.00896428       0.00019315
Ti       6.37259904       0.88049554      15.66969328  F      -0.00918642       0.01345587       0.03623788
Ti       1.59276536      -0.71122721      15.68505223  F       0.01569689       0.00121859       0.03498321
Ti       4.77990273       3.18924079      16.77031593  F      -0.00256362       0.00503739      -0.00561317
Ti       4.38971998      -0.93651748      16.78622972  F       0.00597109       0.00280736      -0.00396035
Ti       3.18060536       5.41547514      17.56987973  F       0.00728785       0.00319960      -0.00764215
Ti       2.68954058       1.34886613      17.58659340  F       0.00311489       0.00617682      -0.00716975
Ti       5.89729178       5.21041359      18.50650351  F      -0.00170277      -0.00598634      -0.00794043
Ti       5.58066494       1.04130021      18.52328545  F      -0.00299430      -0.00666896      -0.00658263
Ti       0.59413820       0.92980634      19.46372414  F       0.00731767       0.00039850      -0.00524436
Ti       3.86983056       3.39273878      19.44693412  F      -0.00022104       0.00237523      -0.00288760
Ti       3.31639801       0.66624435      20.26722296  F       0.00770173       0.00615685       0.00447699
Ti       6.70609832       3.06073502      20.25136913  F       0.00165458       0.00779054       0.00232052
Ti       5.11387542       5.37728223      21.36289794  F       0.00129138      -0.00111283       0.00265345
Ti       6.12541585       0.44333513      21.37720144  F       0.00113976      -0.00232150       0.00138801
Ti       4.55574571       2.66549951      22.05920942  F       0.00743495       0.00073552       0.00796130
Ti       4.05746028      -1.39259844      22.07887291  F      -0.00054666       0.00559010       0.00249012
Ti       7.18391470       2.54208691      22.99467251  F       0.00671699      -0.00157849       0.00014362
Ti       2.63515248       0.81760762      23.01132651  F      -0.00311984       0.00411808       0.00050260
Ti       5.77181845       4.83660036      24.23861202  F       0.00054653       0.00588003      -0.00524451
Ti       5.33824688       0.73829435      24.25686483  F       0.00294563       0.00167475      -0.00678394
Ti       3.65093453       2.98683701      24.66242652  F       0.00078207       0.00811079       0.00598707
Ti       0.36807189       0.52908855      24.67890385  F       0.00643826       0.00546984       0.00425571
Ti       2.92246948       0.55770194      25.80920137  F       0.00853164       0.00362434      -0.00279183
Ti       6.82872303       2.65386474      25.79520134  F      -0.00171037       0.00545823       0.00006117
Ti       4.97470314       5.25663011      27.09832105  F       0.00470789       0.00497097       0.00027989
Ti       1.68154271       2.80730710      27.11621040  F       0.00322024       0.00277224      -0.00458703
Ti       4.44020035       2.47706368      27.30959514  F      -0.00092471       0.00512292      -0.00695187
Ti       3.96774847      -1.60116167      27.32519990  F       0.00782448       0.00060005      -0.00477627
Ti       6.95674371       2.57132845      28.58455054  F      -0.00320547       0.00595750      -0.00413002
Ti       2.79470765       0.62128414      28.59867976  F       0.00975032       0.00526306      -0.00241844
Ti       3.65295869       2.93979238      30.00448111  F       0.00646056      -0.00001933      -0.00981774
Ti       0.34393964       0.50311478      30.01722997  F       0.00469596       0.00504746      -0.00537189
Ti       5.78179891       4.79991188      29.93227374  F       0.00711908       0.00480878      -0.00057326
Ti       5.31886771       0.72315992      29.94779151  F       0.00283137      -0.00020930       0.00150190
Ti       2.84307487       0.61794194      31.36826236  F       0.00196401       0.00511347      -0.00289518
Ti       6.94753913       2.60883944      31.35441452  F       0.00769412      -0.00457868      -0.00079974
Ti       4.01460460      -1.58056292      32.72622679  F      -0.00116448       0.00153687       0.00072376
Ti       4.46656027       2.50600650      32.70989327  F      -0.00099905       0.00519993      -0.00733480
Ti       1.71252563       2.84057709      32.77343313  F      -0.00348876       0.00326324      -0.00245028
Ti       5.01535486       5.28114165      32.77489291  F       0.00151049       0.00276862      -0.01215540
Ti       2.91862313       0.62970250      34.13137012  F       0.00304586      -0.00108826       0.00154631
Ti       6.93384369       2.65605262      34.11980452  F      -0.00018098       0.00594012       0.00130144
Ti       0.46248954       0.53821289      35.41675741  F      -0.00395009       0.00777491       0.00410744
Ti       3.68600399       2.99661962      35.40738288  F      -0.00064082      -0.00071952      -0.00972532
Ti       5.34847745       0.76659457      35.59546598  F       0.00552845       0.00323010       0.00441853
Ti       5.88681954       4.87501784      35.61532435  F      -0.00971549      -0.00281715      -0.00200443
Ti       7.13719905       2.63607089      36.91074738  F       0.00357387      -0.01262158      -0.00060967
V        2.83161454       0.75424175      36.85913215  F      -0.00017050       0.00556343      -0.00235519
Ti       4.54762666       2.55303449      37.95395139  F       0.00650944       0.00343828      -0.00392158
Ti       4.09158178      -1.34289281      37.97133418  F      -0.00219142      -0.00056645       0.00261129
Ti       1.82786594       2.92584944      38.38957770  F      -0.00642484       0.00035138       0.00897749
Ti       5.13382269       5.43283928      38.38584831  F      -0.00197476      -0.00491323       0.01393360
Ti       3.18102833       0.74157198      39.66722795  F       0.00268300      -0.00438045      -0.00254582
Ti       6.71878962       3.02608399      39.65053594  F      -0.00053362      -0.00736375       0.00193436
Ti       3.84282827       3.42032837      40.48446997  F      -0.00585416      -0.01317457       0.00250245
Ti       0.52539969       0.85290559      40.57802516  F       0.00208420       0.00131484       0.00046832
Ti       5.89539772       5.20840058      41.30833083  F      -0.00506244      -0.00974111       0.00154940
Ti       5.55485807       1.00244869      41.25980729  F      -0.00928783      -0.00405118       0.00669728
Ti       7.52690009       2.85234604      42.34365170  F      -0.00253238       0.00030189       0.00803483
Ti       2.65031247       1.34683613      42.37527306  F       0.00364216      -0.01001249       0.00053584
Ti       4.78243623       3.14412105      43.12584689  F      -0.00772970      -0.00121495       0.00158763
Ti       4.33139881      -0.88848773      43.17287426  F      -0.00570396      -0.01204263      -0.00403814
Ti       6.32521590       0.93373141      44.20790398  F      -0.00195671      -0.00736986       0.00359513
Ti       1.56492083      -0.70758606      44.20017153  F      -0.00339108      -0.00623291       0.00587055
Ti       6.89246034       3.61544286      44.95910274  F      -0.00123048      -0.01682644       0.00003077
Ti       3.60642465       1.12728613      45.00442509  F      -0.00948272      -0.01104093       0.00173105
Ti       4.24654004       3.78123130      45.84373454  F      -0.00890661       0.00168482       0.01575153
Ti       5.12615314      -1.07888831      45.86694306  F       0.00724786      -0.00200419       0.01342396
Ti       5.72713762       1.46780059      47.09322792  F      -0.00896357       0.00476593      -0.01820860
Ti       2.36415499      -0.93263056      47.09230463  F       0.01059964      -0.00012759      -0.02113834
Ti       3.40705274       5.87750346      47.54648042  F       0.01144774      -0.00522787      -0.02083770
Ti       2.92064013       1.82107851      47.57902545  F      -0.00346764       0.01160245      -0.02250741
Ti       4.69301275       3.66632659      48.64013527  F       0.01684889      -0.01907240      -0.01234551
Ti       4.78461180      -0.74357538      48.65483506  F      -0.02442133      -0.00303071      -0.02328327
Ti       2.11168753       3.62841620      49.97297668  F       0.05178145      -0.08468983       0.20869776
Ti       1.63003716      -0.44800524      49.98729669  F      -0.10150781       0.00598727       0.20993039
Ti       7.07119645       3.85791180      50.16215423  F      -0.05360603       0.04128131       0.39784847
Ti       3.77934315       1.40781671      50.18115571  F       0.06516376      -0.02759982       0.39914970
Ti       4.57357484       3.75765648      51.44382932  F      -0.09828690       0.05712216       0.96943717
Ti       4.95304926      -0.81187184      51.45794930  F       0.08834516      -0.03912984       0.96233736
Ti       3.45878961       5.94783459      52.82783163  F       0.38724754       0.09071948      -0.67103729
Ti       2.98835792       1.86871263      52.84899575  F      -0.13666299       0.37555686      -0.66685147
