100
Lattice="4.4265 -2.555641 0.0 3.767997 6.526363 -0.031456 0.0 0.0 61.781652" Properties=species:S:1:pos:R:3:move_mask:L:1:forces:R:3 job_name=BondOrder-VacuumGB-CSL13-Al-Al-55-d-2.65 top_level=BondOrder-VacuumGB solute=Al energy=-757.70019582 stress_kbar_3x3="_JSON [[-35.66450347, -2.07051646, 0.53644393], [-2.07051645, -37.62410891, -0.11836987], [0.53644393, -0.11836986, -23.02676246]]" pbc="T T T"
Ti       2.43396438      -0.98040989       8.07456180  F       0.14710326      -0.00382408       1.70579579
Ti       5.73107618       1.46565719       8.05766448  F      -0.08165556       0.13039047       1.70712832
Ti       4.96982440      -0.89857676       9.39808220  F       0.44193070       0.00379063      -0.02618786
Ti       4.52948198       3.70561511       9.38173981  F      -0.22490755       0.38595012      -0.02236154
Ti       7.05754923       3.77939938      10.60058567  F      -0.15289147      -0.04455333      -1.02497905
Ti       3.76461177       1.33045235      10.61754647  F       0.03251196      -0.15078812      -1.02160273
Ti       1.62977872      -0.52305713      10.91468945  F       0.27373320      -0.22463125      -0.16626190
Ti       2.09514367       3.56119166      10.90062226  F      -0.33271944       0.12211111      -0.17208025
Ti       4.71360586       3.56527833      12.18236334  F       0.02045931      -0.13541116      -0.31242683
Ti       4.74577428      -0.80468997      12.19611609  F      -0.12459001      -0.05339858      -0.30712217
Ti       3.39299519       5.78762842      13.22440856  F      -0.08485784       0.03117159       0.05089815
Ti       2.89984887       1.71942791      13.23896998  F       0.07345060      -0.05777909       0.05257121
Ti       2.34984509      -1.02066304      13.78956212  F       0.03313826      -0.04678588       0.01832602
Ti       5.72061923       1.38297949      13.77272621  F      -0.05738600       0.00474939       0.01838822
Ti       4.20024625       3.70005650      14.95990923  F      -0.00974733       0.01548230      -0.03526176
Ti       5.10926857      -1.17668576      14.97545554  F       0.02350467      -0.00189347      -0.03493520
Ti       6.86647726       3.50274503      15.82605566  F      -0.00214235      -0.01501519      -0.02027405
Ti       3.60597876       1.03686193      15.84245395  F      -0.00820102      -0.01204731      -0.02102325
Ti       6.31308632       0.81141673      16.63676471  F      -0.00619816      -0.01368183      -0.00135835
Ti       1.55119533      -0.78946439      16.65094546  F      -0.00606597      -0.01387277       0.00004570
Ti       4.74745751       3.08535574      17.67740492  F      -0.00797844      -0.00697720       0.00796966
Ti       4.30266971      -1.00811922      17.69177143  F      -0.00124030      -0.01361706       0.01012349
Ti       3.10448732       5.32365615      18.46793434  F      -0.00486120      -0.00855551       0.00423005
Ti       2.63685475       1.24365778      18.48297941  F      -0.00360822      -0.01187479       0.00607562
Ti       5.83983261       5.10511564      19.46968578  F      -0.00355774      -0.01541997      -0.00174375
Ti       5.50755517       0.94601274      19.48695844  F      -0.01206157      -0.01075842      -0.00227473
Ti       0.52741236       0.81011408      20.34678519  F      -0.00162228      -0.00436349      -0.00598151
Ti       3.78676201       3.28166402      20.33222226  F      -0.00235901      -0.00572678      -0.00748739
Ti       3.21229965       0.57619571      21.18528505  F      -0.00063370      -0.00437296      -0.00094425
Ti       6.66720363       2.93302363      21.17128473  F      -0.00333861      -0.00190841      -0.00179894
Ti       5.02192031       5.27956135      22.32983171  F      -0.00314880      -0.00278391      -0.00081659
Ti       6.07007148       0.32349372      22.34926664  F      -0.00588461      -0.00325635       0.00157973
Ti       4.47015022       2.53253671      22.92882764  F      -0.00459637      -0.00111136      -0.00253942
Ti       3.96930302      -1.52784139      22.94220300  F      -0.00456078      -0.00278347      -0.00277142
Ti       7.05599786       2.46098647      23.93456088  F      -0.00831725       0.00182372      -0.00250668
Ti       2.61339573       0.67627725      23.94892512  F       0.00101672      -0.00261001      -0.00434282
Ti       5.71214449       4.71920643      25.23551363  F       0.00138135       0.00126855      -0.00145413
Ti       5.22869849       0.64625821      25.25674438  F      -0.00159186       0.00199626      -0.00029347
Ti       3.54950077       2.85910262      25.52303877  F      -0.00018652       0.00724400      -0.00453207
Ti       0.28123005       0.40588652      25.54045778  F      -0.00008012       0.00460660      -0.00302263
Ti       2.77661285       0.46606598      26.75923568  F       0.00173579       0.00232112      -0.00140402
Ti       6.79090242       2.51110560      26.73963463  F       0.00385308       0.00450375      -0.00130623
Ti       4.85692520       5.14326597      28.13585812  F       0.00781086       0.00862580      -0.00008333
Ti       1.61195113       2.68502289      28.15615041  F      -0.00096428       0.00965902      -0.00528118
Ti       4.35372029       2.32711223      28.14974499  F       0.00686920       0.00555034      -0.01063608
Ti       3.86431629      -1.72116370      28.15570071  F       0.00376504       0.00820809      -0.00713560
Ti       6.76128328       2.50868804      29.55707208  F       0.00405323       0.00902096      -0.00367450
Ti       2.73608943       0.43434488      29.57278601  F       0.00226687      -0.00476253      -0.00652280
Ti       3.39809387       2.82330841      30.68904808  F       0.00297757       0.01491959      -0.00033866
Ti       4.65644749      -2.12930950      30.77549740  F       0.00073890       0.00715914      -0.00397228
Ti       5.59955355       4.62754332      31.11936134  F       0.00133304       0.00471749       0.00012511
Ti       5.16469142       0.69643077      31.00486150  F       0.00692482       0.00334822       0.00335060
Ti       2.54804170       0.60159934      32.37332150  F       0.00336294       0.01090178       0.00259230
Ti       7.08424219       2.38403664      32.38688078  F       0.00562062       0.00776923      -0.00402899
Ti       3.95320051      -1.57594179      33.33939757  F       0.00488745       0.01444088       0.00118335
Al       4.39493276       2.57149080      33.20276184  F       0.00348709       0.00914607      -0.00484454
Ti       5.94897125       0.29619428      33.94201834  F       0.00439337       0.01004081      -0.00170943
Ti       5.06131788       5.21625598      34.01999361  F       0.00462887       0.01065371      -0.00359901
Ti       3.29754368       0.55273742      35.09205646  F       0.00561135       0.01235390      -0.00166313
Ti       6.47621456       2.89938056      35.09732753  F       0.00486029       0.00616978       0.00003248
Ti       0.49761477       0.78763745      35.89063624  F       0.00549642       0.00911846      -0.00207170
Ti       3.74063407       3.33145154      35.80269669  F       0.00245084       0.00943363      -0.00136611
Ti       5.56439670       0.89481704      36.88189612  F       0.00184177       0.00501174      -0.00350482
Ti       5.83659978       5.03528784      36.79086355  F       0.00477176       0.00974285       0.00335515
Ti       3.16010262       5.32265564      37.72238264  F       0.00448915       0.00393700       0.00496603
Ti       2.60809625       1.18286755      37.75802254  F       0.00507579       0.00302241      -0.00255117
Ti       4.68056541       3.06423794      38.50304190  F       0.00115183       0.00656602       0.00263395
Ti       4.33562027      -1.06282069      38.56310164  F       0.00228725       0.00019350      -0.00037525
Ti       1.92615404       3.27648705      39.67563469  F      -0.00096702      -0.00080859      -0.00113813
Ti       1.55758002      -0.85558614      39.67663682  F       0.00201508       0.00163596       0.00361442
Ti       3.64261995       1.00858904      40.34057280  F       0.00216192       0.00041405      -0.00191461
Ti       6.86227391       3.44542516      40.33715356  F      -0.00117302       0.00004754       0.00222144
Ti       4.26364259       3.59799954      41.28110661  F       0.00025165      -0.00610407       0.00244773
Ti       5.04203172      -1.21755778      41.29237966  F      -0.00414293      -0.00132757       0.00610273
Ti       2.36372668      -1.12320543      42.52695966  F      -0.00032108       0.00033963       0.00102278
Ti       5.69304811       1.30493546      42.52853263  F       0.00256109       0.00469664      -0.00259899
Ti       3.38863781       5.72126057      42.93520689  F       0.00045313      -0.00336586       0.00094540
Ti       2.89676502       1.64286592      42.94591025  F      -0.00032967      -0.00007978      -0.00082894
Ti       4.65136205       3.50385888      44.06822587  F       0.01602781       0.00780388       0.01081180
Ti       4.77463003      -0.91522505      44.08499333  F      -0.00014085       0.01804251       0.01090735
Ti       2.08275988       3.47753799      45.37054047  F       0.00141920      -0.00171969       0.00314239
Ti       1.61142613      -0.59674706      45.38551083  F      -0.00685399       0.00096910       0.00410572
Ti       7.04561250       3.70180512      45.57950008  F      -0.01815262       0.00761854      -0.01348527
Ti       3.74850662       1.25881506      45.59663339  F       0.01587542      -0.01324669      -0.01371703
Ti       4.53110349       3.63581276      46.85144862  F       0.01295450       0.00734162      -0.02705729
Ti       4.93895057      -0.95411677      46.86854865  F       0.00080795       0.01383686      -0.02812923
Ti       5.72267784       1.42168008      48.19762741  F       0.02914319      -0.06181773      -0.02475129
Ti       2.42072821      -1.02317761      48.21415977  F      -0.06746636      -0.00797548      -0.02470776
Ti       3.42482520       5.83670785      48.27759130  F       0.05992993      -0.04272204       0.02255083
Ti       2.96775400       1.75090773      48.29220283  F      -0.06818231       0.02924011       0.02098760
Ti       4.58845035       3.63333393      49.62119470  F      -0.00585732       0.06645082       0.34906889
Ti       4.89907535      -0.89551307      49.63685586  F       0.05955619       0.03040855       0.34228826
Ti       2.09642534       3.54386603      51.01730052  F       0.15009605      -0.01801279       0.64403791
Ti       1.63465306      -0.54085586      51.03241222  F      -0.08042259       0.11583248       0.63820492
Ti       7.07482160       3.75948100      50.98944989  F       0.45361320      -0.06939227       0.20990648
Ti       3.75873325       1.32273409      51.00653847  F      -0.28599316       0.36114084       0.19969534
Ti       4.60060730       3.65308190      52.38613578  F       0.15649541      -0.33282942       0.07922018
Ti       4.89795804      -0.87068564      52.40149737  F      -0.35840068      -0.03684909       0.08399773
Ti       3.43806199       5.87800460      53.70227591  F       0.06311374      -0.11196272      -1.41249241
Ti       2.97452171       1.79491260      53.71701471  F      -0.12109273      -0.00016106      -1.41137627
