100
Lattice="4.4265 -2.555641 0.0 3.767997 6.526363 -0.031456 0.0 0.0 61.781652" Properties=species:S:1:pos:R:3:move_mask:L:1:forces:R:3 job_name=BondOrder-VacuumGB-CSL13-Al-Al-61-d-5.27 top_level=BondOrder-VacuumGB solute=Al energy=-757.64729389 stress_kbar_3x3="_JSON [[-35.42844135, -1.92626211, -0.62872517], [-1.92626208, -38.03614351, -0.08080462], [-0.62872517, -0.08080463, -22.7800951]]" pbc="T T T"
Ti       2.41713616      -0.95872041       8.06135903  F       0.14253516      -0.00698325       1.70856674
Ti       5.71681675       1.48707313       8.04661969  F      -0.07384039       0.11285649       1.70881388
Ti       4.95084750      -0.87819638       9.39254957  F       0.44582348      -0.00413663      -0.04134682
Ti       4.52616322       3.72020975       9.37743105  F      -0.21832421       0.37845165      -0.04373891
Ti       7.05247033       3.79510596      10.61437858  F      -0.14288559      -0.04917047      -0.99631366
Ti       3.75916057       1.34526874      10.62813073  F       0.03644542      -0.15133236      -1.00104169
Ti       1.62099473      -0.50538546      10.90265826  F       0.28079378      -0.24537691      -0.16116445
Ti       2.09061323       3.57167376      10.88539553  F      -0.35188947       0.12596730      -0.15564570
Ti       4.69796014       3.58481449      12.17163715  F       0.02636064      -0.12827953      -0.32164644
Ti       4.75952238      -0.80127157      12.18890837  F      -0.12752728      -0.03675155      -0.32329308
Ti       3.40159219       5.80388868      13.23903588  F      -0.08956722       0.03910804       0.05020146
Ti       2.90765582       1.73979906      13.25512862  F       0.07456116      -0.05752624       0.04885388
Ti       2.36154499      -1.01227683      13.76782203  F       0.03325754      -0.03682649       0.01107562
Ti       5.71887146       1.40164455      13.75301582  F      -0.04912028       0.01228945       0.01121697
Ti       4.23494769       3.70836343      14.95622345  F      -0.00899050       0.02453340      -0.03299573
Ti       5.10830738      -1.14582238      14.97219511  F       0.02255603       0.00470550      -0.03553802
Ti       6.89044042       3.53584750      15.83947795  F      -0.00199112      -0.00691250      -0.01849296
Ti       3.62976765       1.06429570      15.85361117  F      -0.00792990      -0.00425960      -0.01867387
Ti       6.33702245       0.83816506      16.61369707  F      -0.00795514      -0.00574449      -0.00039895
Ti       1.57079050      -0.76215900      16.62992366  F      -0.00282726      -0.00945269       0.00186217
Ti       4.76571055       3.12678459      17.68018258  F      -0.00764151      -0.00160624       0.00965609
Ti       4.34232996      -0.97905853      17.69627901  F       0.00229594      -0.00744295       0.00868781
Ti       3.14193654       5.36104186      18.46932736  F      -0.00559764      -0.00267845       0.00378716
Ti       2.66207407       1.28856562      18.48467967  F       0.00248650      -0.00552691       0.00637355
Ti       5.86829972       5.15319541      19.44362783  F       0.00249535      -0.01099861      -0.00094588
Ti       5.54659496       0.98725743      19.46127383  F      -0.00933811      -0.00735788      -0.00083702
Ti       0.56536434       0.86466536      20.36059500  F      -0.00356192      -0.00583338      -0.00684627
Ti       3.82780431       3.33401342      20.34560111  F      -0.00190137      -0.00393486      -0.00639944
Ti       3.26991850       0.61646851      21.17649334  F      -0.00380311      -0.00008846       0.00065413
Ti       6.68602384       2.99371281      21.16077031  F       0.00305325      -0.00171760       0.00347725
Ti       5.07016735       5.32554953      22.29391676  F      -0.00134629       0.00053188       0.00173514
Ti       6.10114428       0.37857078      22.31094519  F      -0.00100182      -0.00127832       0.00118401
Ti       4.51808664       2.59579459      22.94777480  F      -0.00154006      -0.00465403      -0.00226917
Ti       4.01351584      -1.46212913      22.96442348  F      -0.00076047      -0.00558374      -0.00314113
Ti       7.12613061       2.49397345      23.91396910  F      -0.00315439      -0.00067421      -0.00501453
Ti       2.62302288       0.74243939      23.92982246  F       0.00320854      -0.00151648      -0.00600943
Ti       5.74411621       4.76902201      25.18170213  F      -0.00306911      -0.00191719      -0.00068160
Ti       5.28755878       0.68303839      25.19952590  F       0.00175452      -0.00187833       0.00390220
Ti       3.60387442       2.91511973      25.54440816  F       0.00798933       0.00179740      -0.00182639
Ti       0.32515901       0.45784846      25.55741534  F      -0.00490275       0.00657335       0.00030956
Ti       2.85604302       0.50424910      26.73026519  F       0.00428705       0.00224557      -0.00037970
Ti       6.80828772       2.57391981      26.71645029  F       0.00304030       0.00212197       0.00391436
Ti       4.92394705       5.18973557      28.05807607  F       0.00001613       0.00375323       0.00113628
Ti       1.64485795       2.73077435      28.07529130  F       0.00967947       0.00481925       0.00171471
Ti       4.39304995       2.39272868      28.18334384  F       0.00256502      -0.00012245      -0.00479917
Ti       3.91710433      -1.67591768      28.19682068  F      -0.00344908       0.00289405      -0.00327695
Ti       6.87506346       2.51071457      29.50147093  F       0.00302403      -0.00115033      -0.00201219
Ti       2.76717660       0.51788598      29.52039899  F       0.00162610       0.00406474      -0.00562568
Ti       3.56805172       2.84687811      30.85035253  F       0.00214159       0.01134448      -0.00019726
Ti       0.29023642       0.41509690      30.84905592  F       0.00591942       0.00110969       0.00406432
Ti       5.73052862       4.70472004      30.93537928  F      -0.00477320       0.00943519      -0.00338863
Ti       5.24852044       0.64762308      30.94159857  F       0.00780707       0.00279965      -0.00092231
Ti       2.71105924       0.54084389      32.32606150  F       0.00222420       0.00210280      -0.00301297
Ti       6.97372362       2.47823131      32.29811426  F       0.00449324       0.00099981       0.00039532
Ti       3.99217184      -1.63120424      33.48470288  F       0.01113164       0.00417914       0.00218848
Ti       4.48980286       2.31296447      33.41102296  F       0.00103024       0.00661924      -0.00088043
Ti       1.76182380       2.77730750      33.77639872  F      -0.00547522       0.00309580      -0.00036982
Ti       4.95186096       5.11371616      33.89622625  F       0.00136808       0.00649534      -0.00256616
Ti       3.03016825       0.46812000      35.11367900  F       0.00589503       0.00226014       0.00507148
Ti       6.68818831       2.75298915      35.12472181  F       0.00497618       0.00490846       0.00702763
Ti       0.43049366       0.62209728      36.05589927  F       0.00233094       0.00889211       0.00805977
Al       3.79879425       3.07465373      35.93651950  F       0.00363042       0.00399437      -0.00910545
Ti       5.47445144       0.73293461      36.70603529  F       0.00312596       0.00581909      -0.00121734
Ti       5.76050350       4.97346887      36.78031048  F      -0.00249430       0.00250798      -0.00024013
Ti       3.05676309       5.04864757      37.82694953  F      -0.01033523       0.00076221      -0.00244735
Ti       2.59097465       1.13589504      37.82606432  F       0.00423977       0.00205061      -0.00141567
Ti       4.78911153       2.89903529      38.54499160  F       0.00074528      -0.00210696      -0.00583783
Ti       4.22581339      -1.17685371      38.62064393  F       0.00025995       0.00138522      -0.00136317
Ti       6.20618958       0.71568291      39.66051362  F       0.00289564      -0.00522693      -0.00488703
Ti       5.20584328       5.56988037      39.55911578  F      -0.00121660      -0.00223391       0.00600216
Ti       3.49216699       0.84522365      40.47535819  F       0.00186103       0.00098821       0.00212388
Ti       6.80906152       3.41895901      40.43250404  F       0.00185667       0.00054576      -0.00279971
Ti       4.12450893       3.56233317      41.25477446  F      -0.00379178      -0.00277512      -0.00371049
Ti       5.08549910      -1.32424192      41.30342460  F      -0.00355029      -0.00045854       0.00530267
Ti       2.24399414      -1.09654268      42.47181859  F      -0.00328898      -0.00135366      -0.00373280
Ti       5.61074269       1.28774780      42.46333977  F       0.00258324       0.00379909       0.00464009
Ti       3.30215171       5.65392766      43.03763230  F       0.00198334       0.00576894      -0.00648604
Ti       2.81547248       1.65587180      43.04284475  F       0.01277188      -0.00125999       0.00053150
Ti       4.67176264       3.48215183      44.05015973  F       0.01058953       0.01262115       0.01003668
Ti       4.64318919      -0.86910656      44.05414834  F       0.00496562       0.02383652       0.01226837
Ti       6.44667227       0.96015520      45.33031294  F      -0.00194132       0.00311329       0.00843960
Ti       1.55848520      -0.57039327      45.33159067  F      -0.00569506       0.00103475      -0.00360792
Ti       6.99206922       3.73956668      45.64323399  F      -0.01363427       0.00127048      -0.01116138
Ti       3.69744634       1.27607737      45.65203391  F       0.02260702      -0.01761339      -0.01906474
Ti       4.45939582       3.68403542      46.84203315  F       0.02331866       0.00934952      -0.02050690
Ti       4.92879429      -0.93120617      46.85718099  F      -0.00257647       0.01387929      -0.02564355
Ti       5.68209519       1.45769331      48.16860633  F       0.03794005      -0.05335038      -0.01582698
Ti       2.39102607      -0.98929548      48.18697714  F      -0.06274917       0.00377394      -0.02563319
Ti       3.39619764       5.87074403      48.30502085  F       0.03698745      -0.05680919       0.01694681
Ti       2.92963050       1.79079187      48.32142272  F      -0.07377666       0.00803302       0.02112354
Ti       4.57154624       3.66180242      49.61970609  F      -0.00000423       0.05894027       0.35105211
Ti       4.86006484      -0.85749240      49.63667627  F       0.04794367       0.02578271       0.35467370
Ti       2.07462546       3.57118437      50.99803317  F       0.14048448      -0.01145588       0.61309559
Ti       1.61066147      -0.51144546      51.01542780  F      -0.09107895       0.12349839       0.61143337
Ti       7.05095970       3.78879912      51.00693970  F       0.46312978      -0.07210706       0.18807538
Ti       3.73807350       1.35234410      51.02235244  F      -0.30278743       0.36289196       0.19361541
Ti       4.57504270       3.68119891      52.38571680  F       0.15040201      -0.30847024       0.09427406
Ti       4.88540402      -0.84833992      52.40187526  F      -0.34705077      -0.01864120       0.09134646
Ti       3.42126168       5.90112247      53.71192712  F       0.05480564      -0.10103709      -1.40881301
Ti       2.96208717       1.81678035      53.72907082  F      -0.11816357      -0.00298929      -1.41371825
