64
Lattice="5.872 0.0 0.0 0.0 6.890708 0.0 0.0 0.0 43.394398" Properties=species:S:1:pos:R:3:move_mask:L:1:forces:R:3 job_name=BondOrder-VacuumGB-T1g-Al-Al-42-d-4.72 top_level=BondOrder-VacuumGB solute=Al energy=-482.17243266 stress_kbar_3x3="_JSON [[-17.23290171, 0.00024593, 0.00203197], [0.00024592, -28.46504988, -2.30602159], [0.00203196, -2.3060216, -16.21784035]]" pbc="T T T"
Ti       4.38449322       5.23927403      34.63914426  F       0.03432456      -0.27337193      -0.40030180
Ti       1.48750091       5.23945319      34.63910087  F      -0.03412244      -0.27372415      -0.39999464
Ti       0.00020552       3.22376950       8.54292495  F      -0.00056981       0.12769365       0.93874121
Ti       2.93568291       3.21375730       8.55438107  F       0.00099443       0.16925669       0.94509863
Ti       5.87177686       6.63060445       9.15960274  F       0.00132178      -0.19348798       0.13672422
Ti       2.93626424       6.64160202       9.17457381  F      -0.00138439      -0.23294694       0.10891687
Ti       4.41886203       1.77611444      10.44416371  F      -0.04319328       0.04490681      -0.48534109
Ti       1.45324954       1.77596284      10.44416371  F       0.04306748       0.04462613      -0.48475527
Ti       1.46523429       4.60364756      10.67849346  F       0.00056376       0.12757991      -0.38033137
Ti       4.40675397       4.60368891      10.67849346  F      -0.00056953       0.12703336      -0.38072000
Ti       0.00001174       6.73645950      11.98080274  F      -0.00006341      -0.08284553       0.01952283
Ti       2.93615854       6.73520539      11.98674777  F      -0.00030120      -0.07371296       0.00803937
Ti       2.93600587       2.87954418      12.58802055  F       0.00025957      -0.04799930       0.09610334
Ti       0.00016442       2.87966822      12.59344485  F      -0.00020221      -0.05545836       0.10092261
Ti       4.40155725       5.01546383      13.75020932  F       0.00565748       0.06311578      -0.09703383
Ti       1.47069525       5.01549140      13.75025271  F      -0.00588168       0.06323515      -0.09733268
Ti       4.40308984       0.94538447      14.23028154  F      -0.00123433       0.01813133       0.03091033
Ti       1.46918614       0.94534312      14.23023815  F       0.00092923       0.01814182       0.03092729
Ti       2.93608221       3.11714269      15.41403732  F       0.00016052      -0.02775519      -0.02841416
Ti       0.00014680       3.11537867      15.41494861  F      -0.00022227      -0.02768543      -0.03649964
Ti       2.93617029       6.03558492      16.01886844  F      -0.00014693       0.00160459      -0.05197282
Ti       0.00012918       6.03652205      16.00454829  F      -0.00011517       0.00876308      -0.05113552
Ti       4.40559131       1.31625615      17.17706493  F       0.00278223       0.00453602       0.00364011
Ti       1.46653200       1.31627682      17.17706493  F      -0.00281291       0.00445369       0.00363931
Ti       4.40424662       4.14128105      17.67931169  F      -0.00673590       0.00418937       0.02153462
Ti       1.46786494       4.14128795      17.67931169  F       0.00683538       0.00421543       0.02172185
Ti       2.93602936       6.29185724      18.85412823  F      -0.00011907       0.00422032      -0.00786321
Ti       5.87195302       6.30051886      18.83030470  F       0.00006625       0.00143352      -0.00170542
Ti       2.93593541       2.38382665      19.42094585  F      -0.00002421      -0.00977729      -0.01919376
Ti       5.87198826       2.37858282      19.44212232  F       0.00013048      -0.00428178      -0.01141877
Ti       1.44976157       4.51879538      20.66979323  F       0.00373933      -0.00230369      -0.00496519
Ti       4.42198006       4.51878849      20.66966305  F      -0.00359630      -0.00234314      -0.00457418
Ti       4.44150446       0.48140553      21.03135536  F      -0.00352885       0.00697798      -0.00607656
Ti       1.43037222       0.48132284      21.03139875  F       0.00346311       0.00717526      -0.00629623
Ti       0.00005285       2.57674580      22.28801373  F      -0.00016406      -0.00415126       0.00503868
Ti       2.93578274       2.52174417      22.25494720  F       0.00033069       0.01573296       0.00579843
Ti       5.87149501       5.79552643      22.86264235  F       0.00048034       0.01574232      -0.00199859
Ti       2.93606459       5.80269277      22.77967226  F      -0.00010234      -0.00127368       0.00242193
Ti       4.37008920       3.86482585      24.22592075  F      -0.00333736      -0.00473609       0.00485920
Ti       1.50181098       3.86497745      24.22587736  F       0.00356900      -0.00486534       0.00464318
Ti       4.40555021       0.97081118      24.29587252  F       0.00421150       0.00362092       0.00610050
Ti       1.46602114       0.97090765      24.29595931  F      -0.00416808       0.00363857       0.00603777
Al       0.00001174       5.79653248      25.67950290  F      -0.00006570      -0.00334315       0.01646192
Ti       2.93604698       5.77876134      25.63558777  F      -0.00001835       0.01203112      -0.01524713
Ti       2.93594715       2.67660594      26.29127713  F       0.00000314       0.00843227      -0.00975234
Ti       0.00013506       2.78969624      26.29891454  F      -0.00010751      -0.00166053       0.00474189
Ti       4.43669530       0.60554164      27.44070794  F       0.00785198      -0.01553557       0.00712546
Ti       1.43546912       0.60550718      27.44070794  F      -0.00778856      -0.01537305       0.00729860
Ti       1.45320843       4.72401445      27.90580910  F       0.01012186       0.00296816       0.00521592
Ti       4.41890314       4.72399378      27.90580910  F      -0.01003337       0.00287356       0.00540620
Ti       2.93609982       2.58285786      29.08700461  F      -0.00018825      -0.03535927      -0.01124555
Ti       0.00011744       2.58335399      29.08461792  F      -0.00012655      -0.05211531      -0.03124722
Ti       2.93609395       6.54273414      29.68910189  F      -0.00010182       0.00863896       0.03173848
Ti       0.00004698       6.55966461      29.73562068  F       0.00002084       0.02876429       0.01895162
Ti       4.39964885       4.38395112      30.86838805  F      -0.00959917      -0.00556372       0.02419479
Ti       1.47239813       4.38398557      30.86834465  F       0.00959868      -0.00565718       0.02468276
Ti       4.40741163       1.58395327      31.35883153  F      -0.01422304       0.02485672      -0.01507187
Ti       1.46476453       1.58396705      31.35883153  F       0.01420853       0.02476449      -0.01510537
Ti       2.93609395       6.34307587      32.49507045  F      -0.00048833      -0.11218161       0.73029484
Ti       5.87194128       6.34334461      32.52831056  F       0.00026412      -0.10949486       0.75445084
Ti       0.00005872       3.30187568      33.11981960  F      -0.00026857       0.27480059       0.25390209
Ti       2.93588256       3.30474910      33.12559105  F       0.00013067       0.25008627       0.22549020
Ti       1.47191075       1.17711898      34.44703726  F       0.01756385       0.07567418      -0.77772844
Ti       4.39970757       1.17707074      34.44699387  F      -0.01704581       0.07508905      -0.77797523
