64
Lattice="5.871999 0.0 0.0 0.0 6.890708 0.0 0.0 0.0 43.401158" Properties=species:S:1:pos:R:3:move_mask:L:1:forces:R:3 job_name=BondOrder-VacuumGB-T1m-Al-Al-36-d-1.42 top_level=BondOrder-VacuumGB solute=Al energy=-479.94169825 stress_kbar_3x3="_JSON [[-18.04559836, 0.00045182, 0.00022514], [0.00045183, -25.44260019, -0.34239957], [0.00022513, -0.34239962, -19.18188098]]" pbc="T T T"
Ti       2.94234126       0.10296096      35.40024133  F       0.01791528      -0.11791560      -1.01270119
Ti       2.93706233       2.93795672       8.00217531  F       0.00580429       0.16763648       1.55777950
Ti       5.86572183       0.10296096      35.40024133  F      -0.01786054      -0.11791744      -1.01295413
Ti       5.87101250       2.93794294       8.00217531  F      -0.00584937       0.16773219       1.55771256
Ti       4.40401687       5.02768795       9.41436219  F       0.00020570      -0.05795936      -0.29962375
Ti       1.46801149       5.03025818       9.41470940  F      -0.00005705      -0.05573537      -0.31751478
Ti       4.40405797       1.31983243      10.02896599  F       0.00011618       0.07458712      -0.56988834
Ti       1.46804673       1.31921227      10.03026802  F      -0.00019582       0.06561385      -0.55073170
Ti       2.93241758       3.41156886      11.21008510  F       0.00128044      -0.21038368      -0.37736296
Ti       0.00364651       3.41156886      11.21008510  F      -0.00128180      -0.21023872      -0.37740817
Ti       2.93373291       6.23084691      11.62018264  F       0.00072322       0.00998774      -0.04536690
Ti       0.00234293       6.23084002      11.62018264  F      -0.00078241       0.01013111      -0.04530384
Ti       1.46802324       1.49443608      12.84387829  F      -0.00001682       0.06118950      -0.04021759
Ti       4.40402861       1.49227929      12.83814934  F       0.00001506       0.06602184      -0.04707812
Ti       1.46802911       4.43965560      13.45153790  F      -0.00004037      -0.12785819       0.01555885
Ti       4.40402274       4.44036534      13.43100916  F       0.00010037      -0.12033907       0.03726264
Ti       2.93971060       6.59360823      14.59806630  F       0.00394473       0.05205271      -0.00738881
Ti       5.86832313       6.59361512      14.59806630  F      -0.00394263       0.05204384      -0.00742581
Ti       2.93732657       2.52217829      15.10451441  F      -0.00459203       0.03417585       0.02637480
Ti       5.87071890       2.52217829      15.10451441  F       0.00456748       0.03417344       0.02633144
Ti       4.40400512       4.68558497      16.25846440  F      -0.00003860       0.00373328      -0.00635657
Ti       1.46800562       4.67262355      16.28628454  F       0.00010797       0.01039489      -0.01509553
Ti       4.40401099       0.72242183      16.87493445  F      -0.00000436      -0.01365250      -0.05096244
Ti       1.46801149       0.73095941      16.84572547  F      -0.00000552      -0.02927609      -0.04315382
Ti       5.85314401       2.86766460      18.06746806  F       0.00472609      -0.00192533      -0.00094794
Ti       2.95484862       2.86766460      18.06746806  F      -0.00472035      -0.00193883      -0.00097971
Ti       5.83338473       5.70943393      18.49601110  F       0.02135743      -0.00864654       0.00556904
Ti       2.97461964       5.70942704      18.49601110  F      -0.02139262      -0.00862291       0.00557521
Ti       1.46798213       0.87791065      19.67582818  F       0.00000448      -0.00186454       0.01307097
Ti       4.40399338       0.94745168      19.72422047  F      -0.00001068      -0.02360799      -0.00475069
Ti       1.46799975       4.05585006      20.20645073  F      -0.00006192      -0.00616302      -0.00745605
Ti       4.40398163       4.04857347      20.29676854  F       0.00012955       0.00689961      -0.00602024
Ti       2.89087319       2.12537687      21.70309627  F       0.01793339       0.02028730      -0.00187558
Ti       0.04510870       2.12536308      21.70309627  F      -0.01795568       0.02047255      -0.00187850
Ti       2.93403825       6.12415119      21.69415563  F       0.00693521      -0.01669004       0.00535901
Ti       0.00190253       6.12415808      21.69411223  F      -0.00693888      -0.01678406       0.00554038
Al       4.40396989       4.06001204      23.11897224  F       0.00016369       0.00639950      -0.00979696
Ti       1.46797626       4.05478889      23.06663045  F       0.00012388      -0.00986130       0.00546153
Ti       4.40399925       0.96061982      23.73006055  F      -0.00001904      -0.00616617       0.00289275
Ti       1.46798213       0.86500436      23.73166639  F      -0.00001399      -0.01546430       0.00278100
Ti       2.96884159       5.68814164      24.90662254  F      -0.00836081       0.00005151      -0.00505161
Ti       5.83915691       5.68814164      24.90662254  F       0.00834078      -0.00001328      -0.00505378
Ti       2.94607585       2.90546014      25.32396808  F      -0.00405736      -0.01797227       0.01921507
Ti       5.86191091       2.90545325      25.32396808  F       0.00400688      -0.01783854       0.01919126
Ti       4.40399925       0.74964701      26.52401010  F       0.00004967       0.02382410      -0.00584507
Ti       1.46801149       0.74986063      26.52578954  F       0.00001621       0.01298062      -0.00417730
Ti       4.40400512       4.71283772      27.17993180  F       0.00005928       0.00965388      -0.00544715
Ti       1.46801737       4.69920101      27.13974232  F      -0.00001099      -0.00515932      -0.00733033
Ti       0.00514387       2.52577524      28.29022022  F       0.00116559       0.01471225      -0.03432503
Ti       2.93092022       2.52575456      28.29022022  F      -0.00124220       0.01482289      -0.03437512
Ti       5.87152337       6.61656118      28.80582598  F      -0.00091801       0.01908936       0.03970792
Ti       2.93652798       6.61655429      28.80582598  F       0.00077101       0.01905294       0.03975298
Ti       1.46804085       4.44745588      29.95087873  F      -0.00005169      -0.02901800       0.03076022
Ti       4.40401687       4.44870310      29.97605140  F       0.00006666      -0.02568784       0.04306040
Ti       1.46801737       1.50661196      30.56821680  F       0.00007774      -0.01727534      -0.04582035
Ti       4.40404035       1.50200208      30.56339927  F      -0.00004866      -0.00282676      -0.03806697
Ti       2.93376814       6.23565663      31.78974239  F      -0.00628131      -0.00717779       0.37146691
Ti       0.00232531       6.23566352      31.78974239  F       0.00604635      -0.00708808       0.37146634
Ti       2.93088499       3.42067837      32.19059549  F      -0.00815091       0.24389267      -0.56927182
Ti       0.00516149       3.42069216      32.19059549  F       0.00816844       0.24395945      -0.56926059
Ti       4.40403448       1.32627524      33.37219201  F       0.00038165      -0.48461273       0.68079990
Ti       1.46800562       1.32435273      33.37766056  F      -0.00030467      -0.48120284       0.67975147
Ti       4.40404035       5.02763282      33.99044151  F       0.00025531       0.39703855       0.30882681
Ti       1.46804673       5.02950021      33.99400040  F      -0.00035291       0.41227278       0.31299631
