100
Lattice="4.4265 -2.555641 0.0 3.767997 6.526363 -0.031456 0.0 0.0 61.781652" Properties=species:S:1:pos:R:3:move_mask:L:1:forces:R:3 job_name=BondOrder-VacuumGB-CSL13-Al-Al-65-d-6.97 top_level=BondOrder-VacuumGB solute=Al energy=-757.27531345 stress_kbar_3x3="_JSON [[-34.8896529, -1.58187324, -0.42952798], [-1.58187323, -38.84664258, 0.58331789], [-0.42952796, 0.58331794, -24.0487693]]" pbc="T T T"
Ti       2.49732430      -0.86512665       8.02631740  F       0.11683573      -0.03321055       1.81791503
Ti       5.78730702       1.58649221       8.01003270  F      -0.08165268       0.09497286       1.82635457
Ti       5.01235165      -0.77516418       9.38939214  F       0.43742202      -0.02107593      -0.07446343
Ti       4.60789044       3.80936459       9.37372555  F      -0.24399536       0.35591389      -0.07846974
Ti       7.11915173       3.89131156      10.62303532  F      -0.14816957      -0.06051175      -1.02464442
Ti       3.82789052       1.44059617      10.63857804  F       0.03348441      -0.14214737      -1.02153542
Ti       1.68156275      -0.41330789      10.88576508  F       0.27944209      -0.24734420      -0.13126176
Ti       2.16025033       3.66109973      10.86997577  F      -0.34961957       0.12150676      -0.13586545
Ti       4.75459111       3.67158583      12.17009322  F       0.01833778      -0.12397765      -0.37241605
Ti       4.82005891      -0.71700745      12.18582081  F      -0.11309478      -0.03638053      -0.36536332
Ti       3.45561903       5.88545441      13.24097597  F      -0.07805114       0.04054018       0.04377065
Ti       2.96028554       1.82057029      13.25664203  F       0.06768775      -0.04849203       0.04564757
Ti       2.41520189      -0.93701516      13.76626413  F       0.04630048      -0.04243911       0.00203686
Ti       5.76652712       1.47895263      13.75041276  F      -0.06054284       0.00948927       0.00009872
Ti       4.27240483       3.77699279      14.95237563  F      -0.00443776       0.01615509      -0.03652494
Ti       5.15247181      -1.08207489      14.96804204  F       0.01785862       0.01480600      -0.03833996
Ti       6.92416066       3.59705365      15.83782713  F       0.00254663      -0.00671554      -0.01598034
Ti       3.67065062       1.12451651      15.85355529  F       0.00047591       0.00177824      -0.01772712
Ti       6.37611241       0.88983167      16.61126636  F      -0.00353479      -0.00183603      -0.00188105
Ti       1.60021148      -0.70377878      16.62705639  F      -0.00188482      -0.00065976      -0.00209031
Ti       4.79149798       3.17801262      17.67728697  F      -0.00305528      -0.00060274       0.01417510
Ti       4.37440298      -0.93186848      17.69282884  F       0.00783075       0.00224861       0.01364531
Ti       3.17289716       5.40848258      18.46884413  F      -0.00635007      -0.00205078       0.02282451
Ti       2.68861514       1.33729621      18.48463347  F       0.00307092       0.00233882       0.02363568
Ti       5.89472630       5.19484791      19.42822382  F       0.00232825      -0.00803597       0.01260503
Ti       5.56933818       1.03162824      19.44407601  F      -0.00742984      -0.00079314       0.00800120
Ti       0.58688420       0.90818485      20.36545887  F       0.00037076       0.00312002      -0.00020318
Ti       3.85269790       3.37428851      20.34979007  F       0.00153318       0.00072124      -0.00356519
Ti       3.30118692       0.64673687      21.17421809  F       0.00380932       0.00071647      -0.00567184
Ti       6.69503406       3.03825905      21.15830456  F       0.00110136       0.00389189      -0.00610223
Ti       5.08589226       5.35306189      22.26542671  F      -0.00143650       0.00228681      -0.01155828
Ti       6.11137825       0.41015833      22.28078377  F       0.00086197      -0.00085549      -0.01464999
Ti       4.53734490       2.63061272      22.96558720  F      -0.00046282       0.00005315      -0.00999149
Ti       4.02800333      -1.42509610      22.98180537  F       0.00007366      -0.00226697      -0.00985038
Ti       7.16158150       2.49697467      23.90078655  F       0.00078668       0.00396053       0.00041080
Ti       2.59920882       0.78022286      23.91725568  F       0.00125866      -0.00152087      -0.00031399
Ti       5.73382857       4.78163587      25.13892511  F       0.00583895       0.00331106       0.00668185
Ti       5.29248180       0.68562601      25.15428210  F       0.00031973       0.00317781       0.01019607
Ti       3.60513935       2.92926083      25.56647223  F      -0.00137595       0.00502081       0.02059212
Ti       0.32627377       0.47049253      25.58288313  F       0.00425028      -0.00021273       0.01326951
Ti       2.87441062       0.49022474      26.71260800  F       0.00077313       0.00757378       0.01974271
Ti       6.77556499       2.58991458      26.69681420  F       0.00076759       0.00279813       0.02145758
Ti       4.90994193       5.18214076      28.01247611  F      -0.00015630       0.00487347       0.00753145
Ti       1.62699324       2.72908874      28.02572401  F       0.00846653       0.00683041       0.01080493
Ti       4.37854498       2.39477691      28.20332219  F       0.00456768      -0.00289613       0.00824123
Ti       3.90474527      -1.68153034      28.21954063  F      -0.00044237       0.00233370       0.00775288
Ti       6.87824059       2.48461958      29.48846092  F       0.00344132       0.00365631      -0.00685568
Ti       2.73180588       0.52898763      29.50486370  F       0.00705630       0.01152332      -0.00699949
Ti       3.57225478       2.83968287      30.88527641  F      -0.00094920       0.00510387      -0.01400916
Ti       0.26958470       0.39236084      30.90181917  F       0.00679419       0.00145132      -0.00662836
Ti       5.70966440       4.70000630      30.86661510  F       0.01026676       0.00309336      -0.00906244
Ti       5.23659983       0.62063798      30.87444078  F       0.00510165       0.00820965      -0.00622442
Ti       2.74124637       0.51805502      32.28203056  F       0.00236856       0.00695061      -0.00200310
Ti       6.86708129       2.48141209      32.26137991  F       0.00741510       0.00259625      -0.00755067
Ti       3.91032608      -1.69304525      33.59129991  F       0.00494038       0.00547554       0.00347457
Ti       4.35797275       2.39562909      33.56681260  F       0.00791746      -0.00584723       0.00118811
Ti       1.62177063       2.71273378      33.74621897  F       0.00949442      -0.00060189       0.00175602
Ti       4.92704767       5.17926101      33.71199356  F       0.00545909       0.01480518       0.00406835
Ti       2.89373167       0.50306064      35.05699832  F      -0.00363568       0.00141376       0.00355580
Ti       6.76208740       2.55544855      35.03959051  F       0.01293576       0.00512845      -0.00717682
Ti       0.34684875       0.36244108      36.17211168  F       0.01603217       0.00797487       0.00230020
Ti       3.68300639       2.98958756      36.21508609  F      -0.00043893      -0.01145505       0.00254156
Ti       5.31087295       0.59745728      36.69593106  F      -0.00002122      -0.00011705      -0.00244332
Ti       5.84282807       4.81695720      36.56700170  F       0.00516844       0.00454253      -0.00226407
Ti       7.14238012       2.56631056      37.82158851  F       0.00078270      -0.00067384       0.00687084
Al       2.53587856       0.87119036      37.79877841  F       0.00775393       0.00791910       0.00217957
Ti       4.56246194       2.58755203      38.77567697  F      -0.00204133      -0.00384691       0.01898222
Ti       4.15712992      -1.30914720      38.74272823  F       0.00629093       0.00395088       0.00670071
Ti       1.84807115       3.04441535      39.52057611  F       0.00507724       0.00694218       0.01976544
Ti       5.07196818       5.39652605      39.42873583  F       0.00044336      -0.00748194       0.01795261
Ti       3.27861312       0.72772235      40.51496574  F       0.00960468       0.01542991       0.01353991
Ti       6.70395548       3.19575393      40.54603465  F      -0.01184760      -0.00602282       0.01302516
Ti       3.95749577       3.45357812      41.35757946  F      -0.00098294      -0.01090350      -0.00288915
Ti       0.58760271       0.97232879      41.41602600  F       0.00945510       0.00798395       0.00349090
Ti       2.17093430      -1.20889713      42.34949351  F      -0.00319123      -0.00021482      -0.01867427
Ti       5.56768096       1.11186729      42.30022048  F      -0.00255082      -0.00746983      -0.02516446
Ti       3.18532901       5.48158801      43.21636848  F      -0.00386460      -0.00520859      -0.01985811
Ti       2.74577546       1.48034984      43.19628716  F       0.00759567       0.01001645      -0.01692425
Ti       4.82034227       3.27944302      44.04150051  F       0.00012535       0.00373923      -0.01337556
Ti       4.47026098      -0.87153886      44.08015743  F       0.00833507       0.02236593      -0.01604344
Ti       6.41952318       0.98386152      45.16829242  F      -0.01227526       0.00352325      -0.01174689
Ti       1.60589363      -0.61543794      45.19721769  F       0.00749340       0.01114885      -0.02585178
Ti       6.98880084       3.70579363      45.81684577  F      -0.01590982      -0.01312317      -0.01472996
Ti       3.69235251       1.21384169      45.82482567  F      -0.00663007      -0.00955322      -0.00353913
Ti       4.37334887       3.79250413      46.78992405  F       0.00843833      -0.01205077      -0.00315111
Ti       5.11596510      -0.97551978      46.81388873  F       0.00391009       0.04455037       0.00529725
Ti       5.76052248       1.52275233      48.05978067  F       0.02387850      -0.04076333       0.01196821
Ti       2.44263298      -0.91015270      48.08452005  F      -0.03272381       0.04772278      -0.00301982
Ti       3.46860278       5.92924675      48.41487672  F      -0.02657469      -0.06741067       0.03278357
Ti       2.99077823       1.86469602      48.43396481  F      -0.05290437      -0.03657844       0.04854248
Ti       4.70625973       3.71853824      49.59178879  F      -0.00390147      -0.02251116       0.38852826
Ti       4.88076979      -0.73569948      49.60975024  F       0.02094936       0.06300165       0.40397112
Ti       2.16196414       3.66554019      50.93523390  F       0.13707932      -0.05322175       0.45454870
Ti       1.68014579      -0.40938326      50.95066092  F      -0.08485042       0.16899728       0.46972709
Ti       7.12399504       3.89564206      51.05947149  F       0.48811289      -0.12349138       0.16028832
Ti       3.82572683       1.44850227      51.07445987  F      -0.35168370       0.33329429       0.11784149
Ti       4.63385950       3.79456278      52.37894431  F       0.15945695      -0.26122321       0.12503972
Ti       4.98536284      -0.75817249      52.39405046  F      -0.30819687       0.03635048       0.10603400
Ti       3.50415370       6.00117822      53.73832924  F       0.03849052      -0.07648609      -1.37051078
Ti       3.03547619       1.92061711      53.75374921  F      -0.08519932      -0.01899869      -1.40818739
