64
Lattice="5.872 0.0 0.0 0.0 6.890708 0.0 0.0 0.0 43.394398" Properties=species:S:1:pos:R:3:move_mask:L:1:forces:R:3 job_name=BondOrder-VacuumGB-T1g-Al-Al-31-d-0.22 top_level=BondOrder-VacuumGB solute=Al energy=-482.02833506 stress_kbar_3x3="_JSON [[-16.89210915, -0.00011309, 0.00034117], [-0.00011309, -26.16875615, -2.14001756], [0.00034116, -2.14001756, -18.19257572]]" pbc="T T T"
Ti       4.40402349       5.20929256      34.65172863  F      -0.00013080      -0.28383119      -0.46795254
Ti       1.46793541       5.20864483      34.65268331  F       0.00015841      -0.28347407      -0.47471044
Ti       0.00211392       3.18305920       8.55077934  F      -0.00347430       0.15889766       0.97792674
Ti       2.93387434       3.18305920       8.55077934  F       0.00339312       0.15900843       0.97772016
Ti       5.86913446       6.63107990       9.17244748  F       0.01367415      -0.19489692       0.16254329
Ti       2.93881856       6.63108679       9.17244748  F      -0.01369423      -0.19477089       0.16266995
Ti       4.40398238       1.76460696      10.46659861  F       0.00010510       0.03841590      -0.52020399
Ti       1.46798826       1.76258109      10.46659861  F      -0.00007453       0.02658261      -0.51704383
Ti       1.46797651       4.59200226      10.67845007  F      -0.00006709       0.12189540      -0.35167027
Ti       4.40397651       4.59320814      10.67523888  F       0.00010807       0.11487345      -0.34935017
Ti       5.87146565       6.71939122      11.99720582  F      -0.00139272      -0.09464424       0.01269915
Ti       2.93650499       6.71938433      11.99716243  F       0.00136876      -0.09461502       0.01259838
Ti       2.93337522       2.87894469      12.60767821  F       0.00670698      -0.06494551       0.10641280
Ti       0.00259542       2.87895158      12.60767821  F      -0.00677112      -0.06490526       0.10647580
Ti       4.40397064       5.00592020      13.76565772  F       0.00012023       0.06399465      -0.08856590
Ti       1.46799413       5.00270224      13.77511770  F      -0.00007005       0.06561744      -0.08297708
Ti       4.40397651       0.93898300      14.24603371  F      -0.00000864       0.02170147       0.03947632
Ti       1.46798826       0.93414572      14.23501153  F       0.00001428       0.02522883       0.03355223
Ti       2.94612920       3.09639477      15.43391196  F      -0.00071976      -0.03173415      -0.03106067
Ti       5.86185318       3.09638787      15.43391196  F       0.00079179      -0.03160316      -0.03114305
Ti       2.94517206       6.03789331      16.03149621  F      -0.00290982       0.01152471      -0.05106782
Ti       5.86281619       6.03791398      16.03149621  F       0.00292653       0.01139493      -0.05097449
Ti       4.40401174       1.31046796      17.23655865  F       0.00000006       0.01394368      -0.00807853
Ti       1.46801174       1.30538950      17.21507842  F      -0.00001750       0.00347851      -0.00242642
Ti       4.40402349       4.13860746      17.70296164  F      -0.00002382       0.00302978       0.01799531
Ti       1.46799413       4.13436967      17.64077746  F      -0.00000004       0.01370287       0.01752453
Ti       2.91664002       6.27527131      18.86905590  F      -0.00208622       0.01712590       0.00216523
Ti       0.01936586       6.27527820      18.86909929  F       0.00210680       0.01715255       0.00205024
Ti       2.96382154       2.43017355      19.44542029  F       0.00153681      -0.00814974       0.00150355
Ti       5.84423718       2.43015977      19.44537690  F      -0.00154961      -0.00809942       0.00149211
Ti       1.46804698       4.59532359      20.67066112  F      -0.00000238       0.00093290      -0.00844777
Al       4.40404110       4.54307824      20.72260422  F      -0.00002960      -0.01083596      -0.00721801
Ti       4.40389430       0.43247462      21.01321650  F      -0.00003003       0.03467986       0.01434533
Ti       1.46809982       0.56504495      21.03790791  F       0.00000370       0.01076437      -0.00572839
Ti       5.81380848       2.55670762      22.21892985  F       0.00164266      -0.00363473      -0.01793260
Ti       2.99430896       2.55678342      22.21901664  F      -0.00170513      -0.00375918      -0.01787346
Ti       0.04632421       5.89257516      22.82449867  F       0.00314056      -0.00507253      -0.00647754
Ti       2.88971690       5.89252004      22.82454207  F      -0.00303094      -0.00497575      -0.00639775
Ti       4.40415267       3.88983223      24.15748779  F      -0.00007686      -0.01622148       0.02388231
Ti       1.46798826       3.86836078      24.15852925  F       0.00001228      -0.00265157       0.01407283
Ti       4.40409395       1.02816254      24.27074717  F      -0.00009067      -0.00109885       0.00465505
Ti       1.46805285       1.04014548      24.32286384  F       0.00006454      -0.00618972       0.00196610
Ti       0.01534354       5.82645193      25.65164370  F      -0.00371594      -0.00205316       0.00083297
Ti       2.92076216       5.82644504      25.65168710  F       0.00373419      -0.00198445       0.00082950
Ti       2.94321082       2.75534606      26.25842757  F      -0.00190365      -0.00249463      -0.00423579
Ti       5.86490075       2.75534606      26.25847096  F       0.00190607      -0.00254038      -0.00416397
Ti       4.40402349       0.64440523      27.41562598  F      -0.00003611      -0.02290546       0.01131752
Ti       1.46801762       0.64138021      27.42942540  F       0.00012555      -0.01754706       0.01523637
Ti       1.46805285       4.70770414      27.90433369  F      -0.00000233       0.00573020      -0.02205667
Ti       4.40407046       4.71345788      27.89079464  F      -0.00007318       0.01178886      -0.02266003
Ti       2.93782032       2.56243380      29.08158031  F       0.00075190      -0.04593657      -0.02591115
Ti       5.87023253       2.56244758      29.08162371  F      -0.00072320      -0.04603719      -0.02607222
Ti       2.93505461       6.51911279      29.68263612  F       0.00269621       0.03131222       0.01905730
Ti       0.00095714       6.51909212      29.68263612  F      -0.00263177       0.03138766       0.01914642
Ti       4.40400000       4.36603528      30.86630511  F      -0.00011105       0.01229596       0.03675610
Ti       1.46798238       4.36571141      30.87172941  F       0.00009228       0.01475625       0.03598913
Ti       4.40401174       1.55180811      31.34906779  F      -0.00010663       0.00792322      -0.02498268
Ti       1.46799413       1.55013367      31.34997907  F       0.00012905       0.00227305      -0.02129047
Ti       2.93726835       6.31209525      32.50696051  F      -0.00305140      -0.08457781       0.74356078
Ti       5.87070816       6.31209525      32.50696051  F       0.00301279      -0.08458928       0.74342166
Ti       0.00065179       3.27361688      33.12146858  F      -0.00389785       0.27023364       0.23210192
Ti       2.93531885       3.27360999      33.12142519  F       0.00388298       0.27034664       0.23215070
Ti       1.46797064       1.14544928      34.43727352  F       0.00001242       0.06236714      -0.76808317
Ti       4.40398826       1.14533903      34.43532077  F      -0.00000929       0.06641461      -0.76737093
