100
Lattice="4.4265 -2.555641 0.0 3.767997 6.526363 -0.031456 0.0 0.0 61.781652" Properties=species:S:1:pos:R:3:move_mask:L:1:forces:R:3 job_name=BondOrder-VacuumGB-CSL13-V-V-55-d-2.65 top_level=BondOrder-VacuumGB solute=V energy=-761.15059211 stress_kbar_3x3="_JSON [[-36.95312392, -2.15686291, 0.22626199], [-2.15686288, -38.50927406, 0.24200426], [0.22626197, 0.24200429, -24.21377962]]" pbc="T T T"
Ti       2.46257110      -0.91805272       8.01169187  F       0.11284543      -0.02209859       1.74759477
Ti       5.75967737       1.52943595       7.99596328  F      -0.07523554       0.08681467       1.74779686
Ti       4.97522010      -0.82459387       9.37797159  F       0.41236036       0.00535436      -0.11132613
Ti       4.58460443       3.75212391       9.36236611  F      -0.20234131       0.35911981      -0.11307601
Ti       7.09465197       3.84180271      10.63525107  F      -0.14444579      -0.04152447      -0.94635164
Ti       3.79810808       1.39433742      10.65091662  F       0.03671306      -0.14753421      -0.94671786
Ti       1.65398284      -0.46169105      10.86771017  F       0.31184815      -0.27299643      -0.12052732
Ti       2.13295383       3.61272698      10.85192024  F      -0.39361558       0.13258928      -0.12041810
Ti       4.70802028       3.64699356      12.16070316  F       0.05537235      -0.12618596      -0.33874227
Ti       4.82248311      -0.77009586      12.17661685  F      -0.13535057      -0.01507816      -0.33873752
Ti       3.44077498       5.86585685      13.27314247  F      -0.08128994       0.03160528       0.03400478
Ti       2.95181916       1.79759514      13.28874565  F       0.06749489      -0.05508607       0.03406094
Ti       2.40739049      -0.96621609      13.74692477  F       0.04350510      -0.04141774       0.00783480
Ti       5.74625608       1.45704971      13.73113480  F      -0.05646305       0.01611883       0.00773276
Ti       4.29802375       3.75181173      14.95976521  F      -0.01042297       0.01689446      -0.02895531
Ti       5.11996482      -1.07402761      14.97561815  F       0.02049359       0.00025679      -0.03090643
Ti       6.93485525       3.59924157      15.87721359  F      -0.00650167      -0.00933469      -0.02139672
Ti       3.67004834       1.13358346      15.89201374  F      -0.00476594      -0.00908069      -0.01949483
Ti       6.38091780       0.88912831      16.61051749  F      -0.00869439       0.00013353      -0.00050111
Ti       1.60010367      -0.70129743      16.62723299  F       0.00426955      -0.00800838       0.00013102
Ti       4.78968921       3.18523520      17.69703477  F      -0.00832103       0.00348187       0.00691527
Ti       4.38318244      -0.93140294      17.71227005  F       0.00504191      -0.00287453       0.00777947
Ti       3.17924435       5.40979546      18.50076725  F      -0.00184824       0.00267107      -0.00084208
Ti       2.68974619       1.34029795      18.51495505  F       0.00445831      -0.00051648      -0.00208423
Ti       5.89734112       5.19522654      19.45076730  F       0.00074932      -0.00294162      -0.00452706
Ti       5.57217838       1.03410441      19.46549937  F      -0.00830995      -0.00059040      -0.00534149
Ti       0.58798639       0.91386602      20.38557685  F      -0.00078090       0.00503883      -0.00282383
Ti       3.85573663       3.37455292      20.37233307  F       0.00098976       0.00447330      -0.00287202
Ti       3.29998214       0.65253171      21.20113646  F       0.00615095       0.00747900      -0.00302172
Ti       6.70099384       3.03824668      21.18714420  F       0.00201095       0.01047953      -0.00497491
Ti       5.08782486       5.36390240      22.30344099  F      -0.00074556       0.00305411      -0.00410722
Ti       6.11090741       0.41981072      22.32251426  F      -0.00103340       0.00220210      -0.00560702
Ti       4.53659237       2.64473515      22.98536963  F      -0.00199263       0.00307872       0.00031433
Ti       4.03050960      -1.42304497      22.99322233  F       0.00277627       0.00456651       0.00624344
Ti       7.15137633       2.52523900      23.93437668  F       0.00567601      -0.00006289      -0.00174342
Ti       2.62668921       0.78938347      23.94898277  F      -0.00552191       0.00318345      -0.00342853
Ti       5.74631060       4.81801677      25.18955206  F      -0.00179612       0.00014024      -0.00579297
Ti       5.29591217       0.72032365      25.20388374  F       0.00320387      -0.00258458      -0.00837432
Ti       3.61265860       2.96073627      25.58395053  F       0.00533800       0.00066412       0.00201115
Ti       0.33124825       0.50770109      25.59355003  F       0.00720068      -0.00064881       0.00177394
Ti       2.86923583       0.55094897      26.75274271  F       0.00414863      -0.00569601       0.00007437
Ti       6.79575469       2.62504772      26.73006893  F      -0.00596765       0.00248399       0.00189517
Ti       4.92328292       5.23878827      28.05437858  F       0.00197104      -0.00554248      -0.00103833
Ti       1.63366911       2.78056058      28.07612318  F       0.00096335      -0.00284936      -0.00051163
Ti       4.39161043       2.44984314      28.22972375  F       0.00157727       0.00139988       0.00119026
Ti       3.91500686      -1.63137166      28.22786377  F      -0.00005271      -0.00046073      -0.00038557
Ti       6.88851575       2.53488355      29.51439141  F       0.00333612      -0.00487134      -0.01088657
Ti       2.75761467       0.58319675      29.53803775  F       0.00335559       0.00092257      -0.00703743
Ti       3.57944739       2.88935096      30.95736638  F      -0.00990527       0.00600548      -0.00440201
Ti       0.28528363       0.44368766      30.88671149  F       0.00973252       0.00009037       0.00501015
Ti       5.72522106       4.75183296      30.90167261  F       0.00068135      -0.00655190      -0.00034487
Ti       5.23908596       0.67233590      30.92497144  F       0.00771557      -0.00485953       0.00046854
Ti       2.75462814       0.58320677      32.31982461  F      -0.00244442       0.00308348       0.00113117
Ti       6.86396668       2.52875563      32.28827563  F       0.00832728      -0.00018472       0.00347525
Ti       3.97349960      -1.67556723      33.52116805  F       0.00018982       0.00091743       0.00131507
V        4.37156362       2.37928072      33.52526428  F       0.00566223      -0.00150186      -0.00384893
Ti       1.65079635       2.78440363      33.74256310  F      -0.00386671       0.00038183       0.00430604
Ti       4.92224719       5.07583560      33.74901397  F      -0.00279044       0.00888580       0.00105264
Ti       2.97750097       0.46174488      35.06481912  F      -0.00009436       0.00490174       0.00816006
Ti       6.68506277       2.67033384      35.05929144  F      -0.00441931       0.01047580       0.00056425
Ti       0.38297030       0.51330795      36.08722076  F      -0.00290339       0.00473883      -0.00024688
Ti       3.65655985       3.00278544      36.03691529  F      -0.00814570       0.00853817       0.00293546
Ti       5.36482258       0.69319064      36.62275540  F       0.00315547       0.00617355       0.00771394
Ti       5.74953618       4.84922138      36.66593042  F       0.00206122       0.00436082       0.00276795
Ti       7.28101250       2.50833893      37.81471275  F       0.00360178       0.00123619      -0.00094302
Ti       2.56808735       0.89311027      37.82464202  F       0.00611860       0.01770579       0.00467380
Ti       4.60947533       2.72051357      38.64999037  F      -0.00022686       0.00723151      -0.00805326
Ti       4.10537780      -1.31714710      38.67805620  F       0.00102174       0.01201371       0.00212690
Ti       6.14159195       0.50352338      39.49528450  F       0.00898602       0.00735425       0.00124510
Ti       5.16329509       5.41493579      39.48099308  F       0.00219163       0.00181548       0.00237658
Ti       3.39946421       0.71833084      40.53322018  F       0.00391636       0.01000108       0.00189386
Ti       6.70826900       3.15509734      40.51355190  F       0.01140474       0.00680187       0.00659327
Ti       3.94233339       3.46855393      41.29904974  F       0.00560670       0.00260264       0.00635204
Ti       0.62618169       1.02261966      41.31969322  F      -0.00019623       0.00486577       0.00410443
Ti       2.18314233      -1.23816988      42.35358965  F       0.00210543      -0.00920830       0.00480164
Ti       5.62750802       1.12560380      42.33847415  F      -0.00202557      -0.00211209       0.00298567
Ti       3.25065412       5.50887511      43.16059179  F      -0.00076897      -0.00030384       0.00159930
Ti       2.73923399       1.45562811      43.17513729  F       0.00382944       0.00469101       0.00340414
Ti       4.78015938       3.30192907      44.00937663  F       0.00848339       0.01038164       0.00583013
Ti       4.49043780      -0.88009881      44.02658157  F       0.00280641       0.01006969       0.00545131
Ti       6.42905735       0.93811976      45.18999967  F      -0.00095775       0.00305690      -0.00318828
Ti       1.61509301      -0.63374972      45.20486382  F       0.00250592      -0.00253137      -0.00172240
Ti       6.98262277       3.68261115      45.75775565  F      -0.01191544      -0.01423515      -0.01051779
Ti       3.71325149       1.21538530      45.77244742  F      -0.00199256      -0.01357336      -0.00949619
Ti       4.39651756       3.74595635      46.77867613  F       0.01388982       0.00931375      -0.01178895
Ti       5.06376120      -0.98968950      46.79551441  F       0.00161695       0.01538320      -0.01273450
Ti       5.73518401       1.48200314      48.06943345  F       0.05366090      -0.03921813      -0.00155145
Ti       2.43289756      -0.96189433      48.08553057  F      -0.05903451       0.02648700      -0.00261816
Ti       3.44917097       5.89272754      48.36655069  F       0.00108754      -0.07857213       0.01746671
Ti       2.96956626       1.81891904      48.38289578  F      -0.06648705      -0.03469699       0.01484162
Ti       4.66250257       3.67853782      49.58362241  F       0.00435671       0.03312838       0.38621147
Ti       4.87193077      -0.79354522      49.59959848  F       0.02589802       0.02414299       0.38768806
Ti       2.13073290       3.61235589      50.92918961  F       0.14963556      -0.02185660       0.50677418
Ti       1.65361563      -0.46364579      50.94467250  F      -0.09298102       0.11960668       0.50715840
Ti       7.09636258       3.83973607      51.03118813  F       0.48039085      -0.12337342       0.16518961
Ti       3.79446855       1.39528137      51.04710109  F      -0.34611688       0.35301633       0.16535177
Ti       4.60553757       3.73722747      52.36654544  F       0.15215840      -0.23986375       0.13508453
Ti       4.95160911      -0.81347689      52.38221162  F      -0.28282095       0.01408256       0.13528631
Ti       3.46880037       5.94734558      53.72871255  F       0.04716922      -0.08582329      -1.41852220
Ti       3.00781165       1.86298927      53.74468623  F      -0.09822783      -0.00129697      -1.41821420
