64
Lattice="5.088765 0.0 0.0 0.0 9.739025 0.0 0.0 0.0 38.303587" Properties=species:S:1:pos:R:3:move_mask:L:1:forces:R:3 job_name=BondOrder-VacuumGB-T2-V-V-46-d-4.86 top_level=BondOrder-VacuumGB solute=V energy=-481.29595021 stress_kbar_3x3="_JSON [[-19.48424895, 0.21145232, 0.27718807], [0.21145232, -21.39229688, -0.66782069], [0.27718806, -0.6678207, -22.82261477]]" pbc="T T T"
Ti       2.54162439       9.25103167      29.94892351  F      -0.85424238       0.02046128      -0.94316791
Ti       0.00238154       4.38400263      29.95240914  F      -0.82217394       0.00511547      -0.93313309
Ti       1.27108190       1.87688542       8.25675952  F      -0.84659734       0.03550443       1.06367214
Ti       3.80789741       6.74787825       8.24611112  F      -0.83161351       0.04323135       1.09789566
Ti       2.70808298       4.07541188       9.02976421  F       0.78763508      -0.57512409       0.58193451
Ti       0.15776698       8.94620993       9.03187090  F       0.79185768      -0.58463450       0.57297672
Ti       1.03691729       6.22227281       9.76032852  F       0.23602725       0.12475567      -0.13418113
Ti       3.58224121       1.35147476       9.76860210  F       0.24528647       0.13349894      -0.13715987
Ti       0.23026153       3.50012767      10.40995736  F      -0.13709793       0.29985159      -0.39212516
Ti       2.77184521       8.37044851      10.40934450  F      -0.13692173       0.29205120      -0.40360610
Ti       1.10801242       0.87091231      11.15005926  F      -0.11180364       0.13854478      -0.44748394
Ti       3.65252214       5.74150584      11.14404560  F      -0.11943433       0.13757574      -0.44262639
Ti       2.75873146       3.10920321      11.84186035  F       0.11594079      -0.00775347      -0.16957131
Ti       0.21470008       7.97756650      11.84013669  F       0.11396443      -0.00357248      -0.16851232
Ti       3.61228019       0.43784709      12.50738517  F      -0.06174164      -0.01374206      -0.13936592
Ti       1.06715982       5.30901522      12.50481883  F      -0.05848857      -0.01836821      -0.13696833
Ti       2.75719465       7.52334812      13.22714788  F      -0.01697681      -0.01101699      -0.02492609
Ti       0.21232872       2.65316362      13.22699466  F      -0.01928393      -0.00091379      -0.02206135
Ti       3.61251936       4.86880155      13.95476282  F       0.03812099      -0.00936888      -0.00565460
Ti       1.06805035       0.00237632      13.95533737  F       0.03562240      -0.01173473      -0.00497563
Ti       0.21776861       7.06783444      14.62017273  F       0.00887344       0.02224960      -0.03838491
Ti       2.76264472       2.19890628      14.62427121  F       0.00634111       0.02379028      -0.03981227
Ti       1.10549857       4.42799380      15.30910104  F      -0.01495437       0.00395879      -0.00687356
Ti       3.65364167       9.30122661      15.31055658  F      -0.01564464       0.00182586      -0.00724606
Ti       0.21717322       1.81334802      16.05529322  F      -0.00809736       0.02103286      -0.00884850
Ti       2.76311797       6.67342341      16.04433840  F      -0.00600702       0.02654474      -0.00593105
Ti       1.04388890       8.83719129      16.69304795  F      -0.01779167       0.00917893       0.00627581
Ti       3.57851623       3.96752296      16.70733518  F      -0.01444558       0.00888013       0.00969994
Ti       2.70952819       1.24711137      17.41598985  F       0.01973750       0.02418934       0.00522189
Ti       0.18009648       6.11639013      17.40917181  F       0.02110264       0.02554635       0.00891438
Ti       3.81001433       8.30441792      18.19443365  F       0.00087198      -0.01663996      -0.00121054
Ti       1.25724555       3.43950224      18.21933098  F       0.00015375      -0.01416950       0.00064194
Ti       5.07438924       0.92729153      18.83211176  F      -0.00463336      -0.00988543       0.01029126
Ti       2.52719265       5.79163260      18.84567123  F      -0.01543295      -0.01116296       0.00434252
Ti       3.79912946       3.43787583      19.45592398  F      -0.02203751      -0.02237169      -0.00671185
Ti       1.26764698       8.29323752      19.42960942  F      -0.01428050      -0.01458660      -0.00543294
Ti       2.38808108       1.22270537      20.19721330  F       0.00869651      -0.02213463      -0.00774481
Ti       4.93975578       6.08313136      20.18434329  F       0.00271994      -0.02796186      -0.00897655
Ti       1.48425535       3.95536866      20.99680068  F       0.01193375       0.01069830      -0.00462549
Ti       4.05298251       8.81744054      20.93788976  F       0.01641914       0.00784964      -0.00156817
Ti       4.83476438       1.81086457      21.56683466  F       0.00891632       0.00283214       0.00406468
Ti       2.30024391       6.66547636      21.59958423  F       0.00987643       0.00164451       0.00022427
Ti       1.43179528       9.33053134      22.31111166  F      -0.00632065       0.01420240       0.01137879
Ti       3.95861645       4.47176098      22.34171623  F      -0.00866244       0.02152839       0.00982764
Ti       4.94757213       7.05752081      23.01333132  F      -0.00648416      -0.00045087      -0.00609138
Ti       2.35639843       2.23014907      23.03623686  F      -0.01740331      -0.01003301      -0.00991587
V        1.46244491       4.87129474      23.63909702  F       0.00552483       0.01576699       0.03742143
Ti       4.01493890       9.73529495      23.65353747  F       0.00090088       0.02304001       0.02848477
Ti       2.35156919       7.47887973      24.33193230  F       0.01065018      -0.01502790      -0.02531897
Ti       4.95370409       2.66468489      24.35368874  F       0.01921807      -0.03340311      -0.03169229
Ti       4.03304472       5.27846390      25.06946787  F      -0.00539866       0.02958741       0.03686758
Ti       1.48412305       0.41450264      25.10191101  F      -0.01444494       0.04096090       0.02906680
Ti       4.85759767       7.97743990      25.77065333  F      -0.01867550      -0.07669561       0.06402275
Ti       2.32224773       3.11725738      25.72158644  F      -0.00610986      -0.07780123       0.03976616
Ti       1.43058924       5.73174734      26.38488965  F       0.03800624       0.01203479       0.14670539
Ti       3.97615742       0.88497546      26.44245995  F       0.04497215       0.01933748       0.20495098
Ti       2.33010478       8.35805073      27.18543462  F      -0.04960162       0.28168742       0.45132467
Ti       4.86728668       3.50806498      27.19512543  F      -0.06457840       0.24913320       0.49693043
Ti       1.50714462       1.35175719      27.81828649  F      -0.09286868       0.23093304       0.66773977
Ti       4.04620936       6.20628133      27.80323318  F      -0.09481658       0.23301766       0.64902072
Ti       4.91760948       8.94363883      28.54674411  F       0.14042948      -0.07738083      -0.11554326
Ti       2.37696722       4.07975548      28.53490830  F       0.12430478      -0.08244947      -0.12030206
Ti       3.81369860       1.87977791      29.33277201  F       0.83106755      -0.40138506      -0.63158032
Ti       1.26333680       6.73945400      29.31105388  F       0.83989372      -0.44227269      -0.65033358
