100
Lattice="4.4265 -2.555641 0.0 3.767997 6.526363 -0.031456 0.0 0.0 61.781652" Properties=species:S:1:pos:R:3:move_mask:L:1:forces:R:3 job_name=BondOrder-VacuumGB-CSL13-Al-Al-48-d-0.01 top_level=BondOrder-VacuumGB solute=Al energy=-759.81256226 stress_kbar_3x3="_JSON [[-36.00232593, -1.97506284, -0.68008692], [-1.97506284, -38.80288177, -0.1150835], [-0.68008695, -0.11508343, -22.17631771]]" pbc="T T T"
Ti       2.33604753      -1.03053575       8.26511129  F       0.14512371       0.03107039       1.65319933
Ti       5.69488395       1.38192214       8.25117215  F      -0.04162520       0.13930626       1.64429935
Ti       5.07808394      -1.15154581       9.47822191  F       0.12106788      -0.04788567       0.27598661
Ti       4.22257910       3.69287972       9.46422528  F      -0.10500825       0.07869774       0.27693346
Ti       6.87351436       3.52870343      10.35178386  F      -0.22485835      -0.10667385      -1.15132876
Ti       3.60800090       1.06015525      10.36597811  F       0.02141245      -0.24858728      -1.15282878
Ti       1.55247912      -0.76856417      11.13042950  F       0.14095559       0.06375068      -0.60692252
Ti       6.31681961       0.83351328      11.11401517  F      -0.01771782       0.14358036      -0.60487414
Ti       4.74812870       3.12213369      12.18889752  F      -0.08146607       0.01937762      -0.20619878
Ti       4.32629972      -0.98264735      12.20276272  F       0.06329085      -0.06522904      -0.19895004
Ti       3.12554692       5.35562430      12.97402677  F      -0.08686279       0.06378185       0.14404367
Ti       2.64509118       1.28647531      12.99097461  F       0.10035810      -0.04925528       0.13736405
Ti       5.85367762       5.15030772      13.94831440  F       0.00711291      -0.03526580       0.02636563
Ti       5.53266794       0.98203663      13.96948894  F      -0.03198045      -0.01389056       0.02369735
Ti       3.81553626       3.33194207      14.84842637  F      -0.01450726      -0.00490981      -0.00783458
Ti       0.54945922       0.85935096      14.86059762  F       0.00195995      -0.01884877      -0.00568813
Ti       6.67715176       2.98961118      15.66248376  F       0.00549336      -0.00869595      -0.01705987
Ti       3.25315961       0.61883473      15.67758205  F      -0.01013117      -0.00715896      -0.01649154
Ti       6.09382234       0.38023107      16.81912165  F       0.00765834      -0.00946764      -0.00356600
Ti       5.06628256       5.32765318      16.80226978  F      -0.01116231      -0.00563729      -0.00026485
Ti       4.50931588       2.59579393      17.44397464  F       0.00670615       0.00611150       0.02096652
Ti       4.01029170      -1.46077237      17.46289276  F       0.00035460       0.00670504       0.01791931
Ti       7.11716003       2.50292921      18.41588267  F      -0.01120749      -0.00511638       0.01249480
Ti       2.62879835       0.74578791      18.43339363  F       0.00238564      -0.02188234       0.01276626
Ti       5.74830837       4.77934982      19.68902006  F       0.00675373      -0.00581150       0.00489397
Ti       5.29603967       0.69212576      19.71066982  F      -0.01009668       0.01106854       0.00638650
Ti       0.32788747       0.46958697      20.05280737  F       0.00553789       0.00383213       0.00598243
Ti       3.61329871       2.92558554      20.04034684  F       0.00484575       0.00791775      -0.00119516
Ti       2.86307333       0.52152701      21.23155925  F      -0.01025360       0.00818224       0.00347854
Ti       6.82468227       2.58611323      21.22015267  F       0.00920302       0.00610234       0.00152732
Ti       4.93905124       5.20931347      22.56490531  F       0.00368449       0.00214326      -0.00365915
Ti       1.66280428       2.75133929      22.58204926  F       0.00226652      -0.00459877      -0.00514388
Ti       4.41105214       2.41129476      22.67867931  F      -0.00783095       0.00160066      -0.00690790
Ti       3.93255485      -1.65415543      22.69468297  F       0.00067711      -0.00416087      -0.00699039
Ti       6.89226328       2.53455600      24.00309073  F      -0.00230436       0.00476709       0.00287798
Ti       2.78743275       0.53970179      24.02096944  F       0.00826225      -0.00130881      -0.00002044
Ti       5.75020962       4.73119271      25.43692261  F       0.01148306       0.00718558       0.00455543
Ti       5.27199996       0.67107600      25.44604862  F       0.00104956       0.00904470      -0.00415619
Ti       3.59046997       2.87268411      25.34577618  F       0.00549817      -0.00123796       0.00681871
Ti       0.31237423       0.44032516      25.34911586  F      -0.00273937       0.00523426       0.00042102
Ti       2.73676934       0.57050125      26.82566550  F      -0.01103386      -0.00672197       0.00616009
Ti       7.00176985       2.50415560      26.79914786  F      -0.00641122       0.00840977       0.00846927
Ti       4.97772184       5.14655834      28.39828969  F       0.00952004       0.00222213       0.01110202
Ti       1.78926996       2.80630192      28.27865811  F      -0.01541365       0.00880257       0.00108575
Ti       4.51559508       2.34365344      27.90716328  F       0.01791439      -0.00126636       0.01336937
Ti       4.01992894      -1.60064898      27.98584391  F       0.00090949       0.00021307       0.00811841
Ti       6.71419260       2.78642728      29.62690636  F       0.00111642       0.00972411       0.00129198
Ti       3.06019282       0.49805357      29.61599139  F      -0.00004324       0.00171018       0.00035252
Al       3.82748886       3.10707812      30.43295640  F       0.00329499       0.00061773       0.00198605
Ti       0.45838330       0.65708355      30.56036021  F      -0.00314312      -0.00507516      -0.01581558
Ti       5.78623572       5.00416637      31.28862189  F       0.00352681       0.00328717      -0.00952497
Ti       5.50578900       0.76330228      31.20957900  F      -0.00365875      -0.00491277      -0.00687948
Ti       2.61953640       1.16336649      32.32616453  F      -0.00320674       0.00969181      -0.00075687
Ti       3.08222270       5.07678750      32.32742448  F       0.00103505      -0.00550071      -0.00022683
Ti       4.25886529      -1.15211388      33.12519292  F      -0.00763234      -0.00232069      -0.00489828
Ti       4.81303709       2.92446706      33.04337897  F      -0.00206871       0.00497858       0.00030904
Ti       6.23076731       0.74130376      34.17088458  F       0.00731260       0.00164823       0.01508270
Ti       5.22734017       5.59096243      34.07154838  F      -0.00101051       0.00468861       0.00673580
Ti       3.51368476       0.86818194      34.97159717  F       0.00501456      -0.00238162       0.00897356
Ti       6.83455977       3.44410931      34.92594661  F       0.00561656       0.00171403      -0.00470720
Ti       5.09613838      -1.29771789      35.81091765  F       0.00370072       0.00087630       0.00233335
Ti       4.15920920       3.57229412      35.75857027  F      -0.01098336       0.00107500       0.00117218
Ti       5.62381568       1.29989232      36.98848749  F      -0.00027625      -0.00229499      -0.00558633
Ti       2.25817007      -1.08843735      36.99358062  F       0.00230235      -0.00135103      -0.00391722
Ti       3.31398499       5.66772772      37.52836424  F      -0.00137458      -0.00271886      -0.00512546
Ti       2.83509135       1.66770038      37.53838654  F      -0.00650782      -0.00716188      -0.01014741
Ti       4.65860324       3.49208150      38.56628831  F       0.00182738      -0.00005379      -0.00300593
Ti       4.66482577      -0.87691686      38.56989773  F       0.00763563      -0.00335078      -0.01693020
Ti       6.44894543       0.94921859      39.85896463  F       0.00145394       0.00535862      -0.00249443
Ti       1.55666574      -0.57981110      39.85270805  F       0.00496010       0.00223084       0.00441164
Ti       3.69751254       1.26621480      40.15109292  F       0.00239877       0.00479639      -0.00174711
Ti       6.99477503       3.72833676      40.14000650  F      -0.00703905      -0.00664176      -0.00313906
Ti       4.46718459       3.66143009      41.35916234  F      -0.00605644      -0.00277345       0.00402594
Ti       4.91643319      -0.94392704      41.37345156  F      -0.00737517      -0.00472025      -0.00098468
Ti       2.38102179      -1.00948573      42.70635887  F      -0.00669775      -0.00083870       0.00237606
Ti       5.67592272       1.43496009      42.69052231  F       0.00082510      -0.00363072       0.00512990
Ti       3.38369462       5.84746279      42.81070344  F       0.00998400       0.00240234      -0.00614252
Ti       2.92157257       1.76633655      42.82895373  F      -0.00399488       0.00853616      -0.00986978
Ti       4.55448006       3.63676130      44.13442470  F       0.00650579       0.00861978      -0.01676662
Ti       4.84929625      -0.88720496      44.15041011  F       0.00208215       0.00816240      -0.01915518
Ti       2.05603646       3.54158381      45.51474845  F      -0.00387527       0.00155576      -0.00458904
Ti       1.59340752      -0.54144263      45.53127678  F       0.00641278      -0.00532595      -0.00667948
Ti       7.03371343       3.75834502      45.51766244  F      -0.00960208       0.00969316      -0.01791277
Ti       3.71943848       1.32103845      45.53215443  F       0.00524014       0.00531276      -0.00654087
Ti       4.55438577       3.64630942      46.89800723  F       0.00668039       0.00128834       0.00191837
Ti       4.86323096      -0.88138817      46.91335904  F      -0.00231422       0.00482480       0.01200313
Ti       5.69263333       1.45227045      48.33887418  F       0.04321269      -0.04485889      -0.08471430
Ti       2.39419161      -0.99616146      48.35368225  F      -0.05388936       0.01910089      -0.08027947
Ti       3.39846690       5.86383860      48.22453958  F       0.05266156      -0.00584775       0.03210264
Ti       2.93668299       1.77962814      48.24168824  F      -0.03672348       0.04144576       0.02558466
Ti       4.50208209       3.68224146      49.66914072  F      -0.00191626       0.07976649       0.25103934
Ti       4.92265481      -0.91169371      49.68499304  F       0.06812574       0.03808942       0.24992314
Ti       2.06339008       3.54030552      51.17066262  F       0.28073270       0.00770950       0.77778567
Ti       1.59410961      -0.54001190      51.18571228  F      -0.13615284       0.25202164       0.77794962
Ti       7.02520764       3.76071491      50.91059203  F       0.36944102      -0.09241244       0.39593440
Ti       3.73030649       1.31276238      50.92557632  F      -0.25990876       0.27030527       0.39790238
Ti       4.66188314       3.56283931      52.45973071  F       0.16497262      -0.28029648      -0.44175877
Ti       4.74169241      -0.83432118      52.47613894  F      -0.32751012       0.00316722      -0.44834036
Ti       3.37463933       5.78511255      53.53834309  F       0.10970840      -0.26293479      -1.03806055
Ti       2.88495822       1.71936673      53.55227059  F      -0.28369402      -0.03249250      -1.03082931
