52
Lattice="4.6568 0.0 0.0 0.0 7.770572 0.0 0.0 0.0 41.044546" Properties=species:S:1:pos:R:3:move_mask:L:1:forces:R:3 job_name=BondOrder-VacuumGB-CSL7-Al-Al-33-d-4.09 top_level=BondOrder-VacuumGB solute=Al energy=-388.43995671 stress_kbar_3x3="_JSON [[-22.4578307, 0.31870011, -0.75963678], [0.3187001, -26.26276789, -1.30674518], [-0.75963673, -1.30674516, -19.37895635]]" pbc="T T T"
Ti       1.81930000       7.39220731       8.21650244  F       1.05453556      -0.11808743       0.85597329
Ti       4.62975796       5.59838630       8.87452860  F      -0.09881775      -0.08463828       0.00240772
Ti       2.45912569       2.27680868       9.12966150  F      -0.59356085       0.29499788       0.64925400
Ti       4.56561054       0.62209645       9.59096115  F      -0.29660622      -0.37217163       0.24410735
Ti       2.35692290       5.00856104      10.33251297  F      -0.06712376       0.02134935      -0.36890039
Ti       0.02418276       3.33566567      10.52743351  F       0.01187232       0.28757854       0.05823899
Ti       2.30879022       0.01097205      11.16259786  F      -0.04068947       0.18158045      -0.47698187
Ti       0.02872314       6.10478671      11.60218495  F      -0.01101316      -0.02076037      -0.23252662
Ti       2.33923637       2.76616045      12.11113732  F       0.02327092      -0.08008121      -0.20640445
Ti       0.00222595       1.11877587      12.51082911  F      -0.04416054      -0.08243464       0.09823031
Ti       2.34424243       5.56973620      13.12813908  F       0.04680463       0.03439540      -0.04933777
Ti       0.00793053       3.87445382      13.46183124  F      -0.00195539       0.00583814      -0.03431007
Ti       2.33296832       0.56907784      14.09416352  F      -0.00017734      -0.00534713      -0.01047117
Ti       0.01538607       6.64344276      14.43056462  F       0.02496968       0.02385832      -0.03789236
Ti       2.33263769       3.32547068      15.03888583  F       0.02446559      -0.01577175      -0.02833082
Ti       0.01142313       1.67932163      15.45138352  F       0.00047067      -0.04737134      -0.01891242
Ti       2.36070422       6.11041260      15.95471279  F      -0.00662173      -0.00272198      -0.01326721
Ti       4.64347224       4.42805268      16.39339690  F      -0.02122332       0.02049982      -0.00580934
Ti       2.34734852       1.11533351      17.02548290  F       0.00008082       0.00958637      -0.01765378
Ti       0.02695822       7.20978536      17.22885863  F       0.00788829       0.00068216       0.01536911
Ti       2.22566168       3.80905669      17.95103742  F      -0.00782858      -0.00131045       0.01204170
Ti       0.13862828       2.15697092      18.46466886  F       0.00531707      -0.00228339       0.00807850
Ti       2.30613118       6.62372882      18.66902966  F       0.00158302      -0.00794229       0.01561796
Ti       4.11274606       4.81913780      19.34552587  F       0.00439196      -0.00525139       0.01324705
Ti       2.70916791       1.63510707      20.06027559  F      -0.00267242      -0.00717292       0.00412977
Ti       0.39549737       7.61827656      20.08149562  F      -0.01133822       0.00660131       0.00008532
Ti       1.25014590       4.79692174      20.72971214  F      -0.00956828      -0.00140896       0.00536923
Ti       3.02729254       6.61660321      21.38010401  F       0.00144940       0.00371551      -0.00407646
Ti       0.62413693       2.17067044      21.69910222  F       0.00044956      -0.00615032      -0.00296844
Ti       3.13081786       3.81887869      22.14542062  F       0.01347652       0.00683828      -0.00078866
Ti       0.75153301       7.25937715      22.93716991  F      -0.00957447      -0.00229599      -0.00515051
Ti       3.05253240       1.10192927      23.09515037  F       0.00040447      -0.01160117       0.00172852
Ti       0.79646182       4.49585092      23.73010949  F      -0.00277028       0.00108631      -0.00354302
Al       3.09640411       6.07737213      24.09043956  F      -0.00970777       0.00494505       0.00271138
Ti       0.73884789       1.74914022      24.64614167  F      -0.00916418      -0.00554319       0.00953334
Ti       3.07469411       3.35954464      25.06303112  F       0.00368109      -0.02117515      -0.00361681
Ti       0.76318898       6.64047440      25.60354675  F       0.01085096      -0.03288287       0.01156790
Ti       3.07167650       0.56058461      25.93157476  F      -0.00132382       0.00005212      -0.00340338
Ti       0.74971686       3.85600648      26.69213020  F       0.00803189       0.04768429       0.03390188
Ti       3.07103387       5.54988239      26.88594255  F      -0.05274853       0.01567599       0.01440617
Ti       0.74688552       1.09948154      27.56075593  F       0.08860149       0.02370057      -0.00683434
Ti       3.06798832       2.73596401      27.97653718  F      -0.01297511      -0.02722318       0.01195221
Ti       0.72930610       6.10306941      28.44120248  F       0.01545914      -0.06607054       0.09430363
Ti       3.10507507       7.76093649      28.89519621  F       0.02095181       0.00512738       0.24226154
Ti       0.72385765       3.31517467      29.58158415  F      -0.01503655      -0.00314277       0.31362338
Ti       3.04602685       4.99169889      29.69433352  F       0.08443576       0.25893009       0.42877455
Ti       0.84289943       0.61794697      30.47471347  F      -0.20017436       0.16845369       0.07681159
Ti       2.94956590       2.25489567      30.95542719  F       0.37504215       0.12881905      -0.23579106
Ti       0.78256593       5.60767991      31.17218344  F      -0.10061763      -0.23754406       0.23937004
Ti       3.58658819       7.37898957      31.84346699  F      -1.24731408      -0.16939507      -0.13788095
Ti       0.38082845       2.79580518      32.55965327  F       0.34241849      -0.16665409      -1.25737120
Ti       2.71602738       4.56455832      32.53576535  F       0.70386056       0.05243750      -0.30087331
