64
Lattice="5.872 0.0 0.0 0.0 6.890708 0.0 0.0 0.0 43.394398" Properties=species:S:1:pos:R:3:move_mask:L:1:forces:R:3 job_name=BondOrder-VacuumGB-T1g-V-V-44-d-5.32 top_level=BondOrder-VacuumGB solute=V energy=-484.86476749 stress_kbar_3x3="_JSON [[-18.72838731, 0.0036974, -0.0054275], [0.0036974, -21.57549805, -1.38519045], [-0.0054275, -1.38519046, -23.30594963]]" pbc="T T T"
Ti       4.40660717       5.10520152       8.21447275  F      -0.01038092      -0.09565787       1.14926393
Ti       1.46552202       5.10521531       8.21442936  F       0.01052664      -0.09565804       1.14941909
Ti       0.00003523       3.00671220       9.37301639  F      -0.00000504       0.33713721      -0.16942149
Ti       2.93606459       3.00794564       9.38659884  F       0.00001767       0.34230199      -0.17512013
Ti       0.00004110       6.76132807       9.99911076  F       0.00023327      -0.47626127      -0.31290796
Ti       2.93612918       6.75848909       9.99863343  F      -0.00040376      -0.46924215      -0.30617955
Ti       4.41301939       1.82956566      11.43490121  F      -0.00244503       0.09330646      -0.10223419
Ti       1.45908630       1.82957944      11.43477103  F       0.00249683       0.09325646      -0.10166733
Ti       1.46596242       4.66512646      11.40317991  F       0.00550745       0.33689782      -0.21821225
Ti       4.40613741       4.66512646      11.40317991  F      -0.00552241       0.33691422      -0.21815925
Ti       0.00001762       6.75184645      12.83324229  F       0.00004842      -0.12771479      -0.02809419
Ti       2.93602936       6.75393434      12.83237440  F      -0.00017259      -0.13307823      -0.03368692
Ti       2.93597651       3.06868723      13.45022384  F      -0.00009859      -0.08067157      -0.09233187
Ti       0.00005872       3.07102318      13.45612548  F       0.00015599      -0.08103238      -0.08034820
Ti       4.40071755       5.15774317      14.63957750  F       0.00590354      -0.01448258       0.00664839
Ti       1.47127070       5.15778452      14.63953411  F      -0.00574976      -0.01441051       0.00665587
Ti       4.40386494       1.08530718      15.03785129  F      -0.00141803       0.02661357       0.05384805
Ti       1.46812918       1.08526584      15.03785129  F       0.00161945       0.02698912       0.05377321
Ti       2.93595890       3.24324953      16.26578257  F       0.00009118       0.02321538      -0.00182082
Ti       0.00000587       3.24364230      16.26990504  F       0.00004302       0.02247296      -0.01649209
Ti       2.93601174       6.19697219      16.87208910  F       0.00011018      -0.00212826      -0.02992468
Ti       5.87197064       6.19764748      16.87017974  F      -0.00006379      -0.00161155      -0.02282116
Ti       4.40553259       1.46684568      18.03093650  F       0.00141406       0.02373371       0.01953326
Ti       1.46647915       1.46681123      18.03089310  F      -0.00128814       0.02378145       0.01944014
Ti       4.40461656       4.28756389      18.54160177  F       0.00550689       0.00049558       0.00446091
Ti       1.46735995       4.28757079      18.54142819  F      -0.00524963       0.00047014       0.00471040
Ti       2.93596477       6.45786818      19.70891108  F       0.00001050       0.00252651       0.00055215
Ti       0.00011157       6.46227823      19.70665457  F       0.00005595       0.00570871      -0.00008056
Ti       2.93609395       2.49114943      20.29976920  F       0.00002033      -0.00396212      -0.00244009
Ti       0.00000587       2.49141128      20.31821182  F       0.00015820      -0.00734669      -0.00313741
Ti       1.46501115       4.66138480      21.49485092  F       0.00077326       0.00109059       0.00681281
Ti       4.40714152       4.66117808      21.49519808  F      -0.00093261       0.00132832       0.00726420
Ti       4.41013624       0.60080772      21.98117194  F       0.00582864       0.00365256       0.00730482
Ti       1.46195771       0.60086285      21.98117194  F      -0.00582062       0.00433302       0.00722323
Ti       5.87159483       2.74000735      23.15898269  F      -0.00006365      -0.01364606       0.00449711
Ti       2.93651674       2.73173850      23.12817267  F       0.00001187      -0.01755926       0.01506806
Ti       0.00087493       5.79066159      23.75101246  F       0.00030994      -0.00039699      -0.00352560
Ti       2.93518379       5.77853395      23.72740591  F      -0.00057140       0.00794426       0.00770273
Ti       4.37006571       3.84932176      25.30045284  F       0.00430870       0.00880129      -0.00382905
Ti       1.50256846       3.84735790      25.30218861  F      -0.00395156       0.00708332      -0.00366059
Ti       4.39081736       1.02702557      25.09584825  F      -0.00722370      -0.00047265      -0.00761876
Ti       1.48107107       1.02701179      25.09684632  F       0.00699188      -0.00051077      -0.00711407
Ti       0.00173811       5.89308508      26.54496078  F       0.00059544      -0.00698753       0.00429447
Ti       2.93433235       5.88227356      26.51102636  F      -0.00089093      -0.00494757       0.02103821
V        2.94279978       2.51051921      27.12605516  F       0.00335691      -0.00719969      -0.02500334
Ti       5.86584614       2.52344618      27.17170607  F      -0.00295455      -0.01721885      -0.00673400
Ti       4.35784021       0.51429488      28.33250621  F       0.01137372       0.00517357      -0.00153269
Ti       1.51370765       0.51731301      28.33189869  F      -0.01122248       0.00616567      -0.00157153
Ti       1.48036643       4.52688507      28.63066912  F       0.00599052       0.05380412      -0.01312714
Ti       4.39148090       4.52792557      28.63088610  F      -0.00626287       0.05325520      -0.01401081
Ti       2.93646389       2.40241778      29.90312306  F      -0.00004916      -0.07414728       0.05792161
Ti       5.87116618       2.42839575      29.95710569  F       0.00014973      -0.08262439       0.06639520
Ti       2.93496653       6.32684136      30.53082302  F      -0.00148518       0.12512524       0.10363132
Ti       0.00061656       6.31091694      30.50222611  F       0.00113975       0.11302475       0.09566319
Ti       4.39894421       4.19140406      31.67869164  F       0.00281184       0.01405766       0.24087475
Ti       1.47275632       4.19116978      31.67856146  F      -0.00284461       0.01354131       0.24050360
Ti       4.39680680       1.37032754      32.18809848  F      -0.00444977      -0.28688627       0.36420460
Ti       1.47495832       1.37048602      32.18831545  F       0.00447253      -0.28748598       0.36539765
Ti       2.93606459       6.10791668      33.36586583  F      -0.00078507       0.42881551       0.07261185
Ti       5.87197651       6.11017683      33.34251965  F       0.00049521       0.40379323       0.05031013
Ti       5.87197064       3.17798075      33.94735077  F      -0.00080366      -0.35914204       0.11352087
Ti       2.93601174       3.17826327      33.96358027  F       0.00059178      -0.37458891       0.10174099
Ti       1.46657898       1.02958203      35.16816537  F       0.00805301       0.09443657      -1.21028862
Ti       4.40554434       1.02944421      35.16803518  F      -0.00806482       0.09582475      -1.20919046
