64
Lattice="5.872 0.0 0.0 0.0 6.890708 0.0 0.0 0.0 43.394398" Properties=species:S:1:pos:R:3:move_mask:L:1:forces:R:3 job_name=BondOrder-VacuumGB-T1g-Al-Al-34-d-1.29 top_level=BondOrder-VacuumGB solute=Al energy=-482.12467333 stress_kbar_3x3="_JSON [[-16.88109487, -3.211e-05, 0.00115865], [-3.209e-05, -29.43501321, 0.42561112], [0.00115867, 0.42561112, -16.40903018]]" pbc="T T T"
Ti       4.40533882       5.21466731      34.65563413  F       0.00103173      -0.27637119      -0.42010080
Ti       1.46664357       5.21463975      34.65563413  F      -0.00104318      -0.27633643      -0.42011609
Ti       5.87195302       3.18963983       8.55229814  F       0.00008298       0.17221898       0.93034000
Ti       2.93604110       3.19052184       8.55073594  F      -0.00016687       0.17199567       0.90816218
Ti       0.00004698       6.63578626       9.16559117  F      -0.00027651      -0.21264266       0.11046028
Ti       2.93591779       6.63340896       9.17049473  F       0.00024281      -0.21308228       0.08898639
Ti       4.39894421       1.76832794      10.45583680  F       0.01682684       0.03219581      -0.54501554
Ti       1.47303818       1.76836239      10.45583680  F      -0.01679315       0.03218153      -0.54520169
Ti       1.47000822       4.59899633      10.67085605  F      -0.00370172       0.11897139      -0.37605437
Ti       4.40192131       4.59901011      10.67089944  F       0.00373706       0.11892386      -0.37611441
Ti       5.87198826       6.72341539      11.97950091  F       0.00001234      -0.09286672      -0.00076156
Ti       2.93597064       6.72561353      11.98705153  F       0.00001748      -0.10377752       0.00644983
Ti       2.93598826       2.87409363      12.59778429  F      -0.00008973      -0.06878302       0.11558412
Ti       5.87198826       2.87498254      12.58224909  F      -0.00002016      -0.06891956       0.10973819
Ti       4.40856254       5.00082108      13.74274548  F      -0.00992993       0.05583313      -0.07866216
Ti       1.46342571       5.00082108      13.74274548  F       0.00992738       0.05572700      -0.07878747
Ti       4.40576747       0.93025936      14.22390257  F      -0.00084720       0.00687655       0.05229013
Ti       1.46611509       0.93025247      14.22390257  F       0.00111929       0.00684983       0.05231569
Ti       2.93599413       3.08211033      15.42479914  F      -0.00012676      -0.03266541      -0.02803777
Ti       5.87198238       3.09234303      15.40106240  F       0.00012898      -0.03033356      -0.02493884
Ti       2.93597064       6.01326592      15.98484724  F       0.00004111      -0.00362283      -0.03806703
Ti       0.00000000       6.00785671      16.00984241  F       0.00001225       0.00168358      -0.03790614
Ti       4.42079392       1.26344577      17.17702153  F      -0.00114105      -0.00803121       0.00109707
Ti       1.45126480       1.26345266      17.17697814  F       0.00104695      -0.00791308       0.00124495
Ti       4.43515096       4.10203158      17.65540138  F      -0.00746652       0.00784903       0.02855674
Ti       1.43684904       4.10203158      17.65544477  F       0.00751306       0.00778240       0.02829028
Ti       2.93601174       6.20725313      18.82106169  F       0.00009507      -0.01299830      -0.00455225
Ti       0.00006459       6.26625137      18.86775407  F      -0.00016827      -0.01137169      -0.00580875
Ti       2.93602936       2.36087370      19.34400759  F      -0.00003004      -0.00330524      -0.00606237
Ti       0.00004110       2.35462383      19.44099406  F       0.00001950       0.00317946      -0.02326965
Ti       1.48563362       4.47486712      20.72151936  F      -0.00838992      -0.00720928       0.00162945
Ti       4.38644859       4.47484645      20.72151936  F       0.00839033      -0.00705241       0.00153572
Ti       4.37514499       0.46433725      20.94756077  F       0.00463511       0.00032187      -0.00082871
Ti       1.49699006       0.46432347      20.94760417  F      -0.00498142       0.00052331      -0.00100804
Al       0.00004110       2.48327335      22.25073794  F       0.00008834       0.00441927       0.00482772
Ti       2.93606459       2.48302528      22.18625387  F      -0.00001646      -0.01291720       0.00814140
Ti       0.00005285       5.91137302      22.84892972  F      -0.00006738       0.00212227      -0.00496863
Ti       2.93604698       5.91011202      22.86832701  F       0.00008726       0.00479981      -0.00416391
Ti       4.43678338       3.88170808      24.15709724  F      -0.00198061       0.00308269      -0.01010242
Ti       1.43534581       3.88172876      24.15709724  F       0.00184433       0.00288933      -0.01012788
Ti       4.40710042       1.09613248      24.37411262  F      -0.00529752      -0.01389553       0.00352211
Ti       1.46498179       1.09613938      24.37411262  F       0.00526719      -0.01385293       0.00349690
Ti       0.00001762       5.84645566      25.67008632  F       0.00017909       0.00702541      -0.00614428
Ti       2.93604110       5.84711027      25.67334090  F      -0.00006568       0.01057086      -0.00286913
Ti       2.93604698       2.83468568      26.29279593  F      -0.00001538       0.00508040      -0.00341634
Ti       0.00005872       2.84677887      26.33406400  F       0.00003688       0.01462354      -0.00467965
Ti       4.39933176       0.67535829      27.43580437  F      -0.00320492      -0.00868873       0.00265007
Ti       1.47272109       0.67535140      27.43580437  F       0.00318416      -0.00878945       0.00269376
Ti       1.46770640       4.76685398      27.92945905  F      -0.00351027      -0.00286664      -0.02205355
Ti       4.40436406       4.76686776      27.92945905  F       0.00346603      -0.00297582      -0.02208420
Ti       2.93601174       2.58639968      29.09546652  F      -0.00004754      -0.02461423      -0.02900361
Ti       0.00001174       2.58797766      29.11820519  F       0.00006989      -0.01920070      -0.02909460
Ti       2.93599413       6.55818310      29.70294470  F      -0.00007053       0.03059353       0.00663183
Ti       0.00000000       6.55503405      29.70329185  F       0.00017274       0.03561637       0.00805508
Ti       4.40257310       4.38592186      30.89151726  F      -0.00117985       0.02319485       0.03055285
Ti       1.46940341       4.38590119      30.89156065  F       0.00116806       0.02324940       0.03029111
Ti       4.40128714       1.57083336      31.36169556  F      -0.00273845       0.00664003      -0.02017088
Ti       1.47070699       1.57085403      31.36173896  F       0.00277751       0.00648960      -0.02032582
Ti       2.93598826       6.32675868      32.52340699  F      -0.00005759      -0.06009979       0.77380997
Ti       0.00002349       6.32805413      32.52206176  F      -0.00001601      -0.07085967       0.76940104
Ti       5.87195890       3.28149985      33.13183984  F       0.00015416       0.29118625       0.27962510
Ti       2.93598826       3.28291934      33.13240397  F       0.00005277       0.30357594       0.29028184
Ti       1.46798238       1.15250537      34.44300158  F      -0.00271725       0.05380936      -0.72507068
Ti       4.40400000       1.15252604      34.44300158  F       0.00272923       0.05396078      -0.72509256
