52
Lattice="5.088765 0.0 0.0 0.0 5.495746 0.0 0.0 0.0 48.722931" Properties=species:S:1:pos:R:3:move_mask:L:1:forces:R:3 job_name=BondOrder-VacuumGB-C1-V-V-32-d-3.83 top_level=BondOrder-VacuumGB solute=V energy=-396.17412873 stress_kbar_3x3="_JSON [[-37.4615699, -0.46980751, 1.46372003], [-0.46980753, -23.77094864, 3.69395666], [1.46372001, 3.69395668, -26.42993122]]" pbc="T T T"
Ti       2.60168199       0.08629420      40.04108937  F      -0.07196650      -0.12058830      -0.90199182
Ti       0.51410775       1.66320509       8.63657803  F       0.00231003      -0.14135560       0.76633186
Ti       0.32918712       4.41690908       8.62907469  F      -0.01832086      -0.12039713       0.80162748
Ti       2.48221815       3.04085672       9.98927276  F       0.05731453       0.02370592      -0.09014348
Ti       3.43094714       0.29275839       9.99468100  F      -0.09491257       0.01208870      -0.09140821
Ti       0.87691634       0.30723968      11.03832619  F      -0.13073894       0.11981772      -0.39025731
Ti       5.02282478       3.05414543      11.03082286  F       0.13398735       0.12080669      -0.36849884
Ti       3.07086613       1.61306190      12.40705076  F      -0.06813630      -0.06004860      -0.02734634
Ti       2.81116101       4.35335077      12.40042445  F       0.08307644      -0.05913924      -0.01897419
Ti       5.07882155       5.42414742      13.69245913  F      -0.06036329       0.03146313      -0.02179926
Ti       0.77692211       2.67990161      13.69601590  F       0.05516262       0.03044210      -0.03259334
Ti       3.36896089       3.28263107      14.93348091  F      -0.03061152      -0.02901198      -0.00687432
Ti       2.47073789       0.52805875      14.91711000  F       0.02819162      -0.03252910      -0.00996548
Ti       0.75832776       4.08951650      16.18658597  F       0.00713507      -0.00236260       0.00922119
Ti       5.08260251       1.33421874      16.17703627  F      -0.00732091       0.00177194       0.01020637
Ti       2.51573275       2.12377059      17.45094603  F       0.00157708       0.00452141       0.00798672
Ti       3.29078220       4.88827372      17.43613426  F      -0.00142021       0.00687630       0.00825904
Ti       0.74004383       0.15194089      18.71428291  F       0.00612618       0.00559890      -0.00548617
Ti       5.03312444       2.89195497      18.68085897  F      -0.00267196       0.00356548      -0.00348453
Ti       3.29687854       0.93618384      19.97230898  F      -0.00103646       0.00127534      -0.00005855
Ti       2.51505086       3.67352699      19.93357425  F       0.00202039      -0.00077578      -0.00108640
Ti       5.04953062       4.42451519      21.21162546  F      -0.00033502       0.00304494      -0.00049065
Ti       0.73417139       1.70410443      21.17201371  F       0.00134325       0.00106589       0.00081678
Ti       2.45808213       5.20516942      22.42292624  F      -0.00329020       0.00142980      -0.00382000
Ti       3.23008341       2.47164032      22.47540084  F      -0.00041952       0.00216080      -0.00543059
Ti       0.65199802       3.14031323      23.77250271  F       0.00294580      -0.00040660      -0.00203073
Ti       0.01075765       0.35106825      23.68080615  F       0.00080013       0.00012494      -0.00014556
Ti       3.52861072       1.79016232      25.23628573  F      -0.00005014      -0.00276817      -0.00128830
Ti       2.61349302       4.49195349      25.16739150  F      -0.00397672      -0.00416631      -0.00155991
Ti       0.06183867       4.47309209      26.27598435  F       0.00038549       0.00411011      -0.00065016
Ti       1.01222660       1.81854235      26.26779890  F       0.00046387       0.00342464      -0.00190171
Ti       3.04551390       0.34009875      27.53532595  F      -0.00300708      -0.00377137       0.00243013
V        3.06486647       3.11286198      27.54419352  F       0.00415999      -0.00648993      -0.00009438
Ti       0.99484338       4.45019681      28.84558301  F       0.00245818      -0.00368119      -0.00458424
Ti       0.00695634       1.76990500      28.83013784  F      -0.00322193      -0.00004522       0.00001287
Ti       2.54547658       1.68617731      29.88654843  F       0.00178972       0.00032249      -0.00452066
Ti       3.52647852       4.37965891      29.88908202  F      -0.00649788      -0.00490589      -0.00372564
Ti       0.38811502       0.34279716      31.22832923  F       0.00598964      -0.00139124       0.01623095
Ti       0.57281683       3.08438852      31.24050996  F      -0.00636308      -0.01250436       0.01228214
Ti       3.38547902       1.91799887      32.56606602  F      -0.00786017      -0.01379378       0.00907886
Ti       2.64944005       4.66709192      32.55408018  F       0.01091014      -0.01401474       0.00207595
Ti       0.91734149       1.25193094      33.79344537  F      -0.00548826      -0.00708479      -0.00104372
Ti       0.01268629       4.00902030      33.79354282  F       0.00309782      -0.01684487       0.00275837
Ti       2.62287161       3.20307465      35.03651351  F      -0.01126138      -0.00878496      -0.05108851
Ti       3.38214079       0.45004114      35.04279877  F       0.01565555      -0.00151081      -0.04835762
Ti       0.81084890       5.11612735      36.30369950  F       0.02887620      -0.00796796       0.03228090
Ti       0.09444748       2.37312358      36.29351641  F      -0.02810848      -0.02045453       0.01939367
Ti       2.61165088       1.54867924      37.55612244  F       0.10098587      -0.01493677       0.65964992
Ti       3.37190729       4.29221060      37.56221281  F      -0.09679916      -0.02606614       0.65059754
Ti       0.89047790       3.48199475      38.80284480  F       0.22384519       0.25949092      -0.00294774
Ti       5.07764605       0.74085954      38.80299097  F      -0.21895660       0.22701271      -0.01035546
Ti       3.35004595       2.83241956      40.04791058  F       0.10252699      -0.12632292      -0.89723689
