64
Lattice="5.871999 0.0 0.0 0.0 6.890708 0.0 0.0 0.0 43.401158" Properties=species:S:1:pos:R:3:move_mask:L:1:forces:R:3 job_name=BondOrder-VacuumGB-T1m-Al-Al-37-d-1.42 top_level=BondOrder-VacuumGB solute=Al energy=-479.9432064 stress_kbar_3x3="_JSON [[-18.12762234, 0.00018608, -0.00034838], [0.00018609, -25.33264553, -0.25802784], [-0.0003484, -0.25802782, -19.16374545]]" pbc="T T T"
Ti       2.93238822       0.10403591      35.40080554  F      -0.01120659      -0.11488609      -1.00675492
Ti       2.93527137       2.94032023       8.00117708  F      -0.00349192       0.16807390       1.56086987
Ti       0.00369936       0.10402902      35.40080554  F       0.01102750      -0.11489619      -1.00739312
Ti       0.00078098       2.94031334       8.00117708  F       0.00351285       0.16809941       1.56093443
Ti       4.40403448       5.03165011       9.41345076  F       0.00003876      -0.05992452      -0.31127779
Ti       1.46800562       5.03073364       9.41301675  F      -0.00001311      -0.06445823      -0.29872052
Ti       4.40406384       1.31924672      10.02874898  F      -0.00005463       0.07050054      -0.54795059
Ti       1.46801737       1.31883328      10.02762055  F       0.00000331       0.07948841      -0.55750619
Ti       2.93772587       3.41228549      11.20709042  F      -0.00064290      -0.21021162      -0.37808800
Ti       5.87032548       3.41230616      11.20709042  F       0.00066544      -0.21031260      -0.37801651
Ti       2.93752035       6.23119834      11.61940142  F      -0.00012284       0.00913361      -0.05104601
Ti       5.87054274       6.23119834      11.61944482  F       0.00011358       0.00905882      -0.05125667
Ti       1.46801149       1.49387104      12.83845315  F       0.00000244       0.06506656      -0.05881394
Ti       4.40403448       1.49469793      12.84157803  F      -0.00005729       0.06424271      -0.04903445
Ti       1.46802911       4.43997257      13.43361323  F      -0.00003486      -0.11974384       0.01932393
Ti       4.40401099       4.43843595      13.44741479  F       0.00005105      -0.12278207       0.01551215
Ti       2.93393843       6.59410436      14.59819650  F      -0.00575327       0.05387864      -0.00885265
Ti       0.00208456       6.59409747      14.59819650  F       0.00571398       0.05405775      -0.00864765
Ti       2.93555910       2.52185442      15.10438420  F       0.00403017       0.03492949       0.02840441
Ti       0.00046976       2.52186820      15.10438420  F      -0.00401639       0.03491503       0.02854026
Ti       4.40400512       4.67504219      16.28164062  F      -0.00001758       0.00387777      -0.00282443
Ti       1.46800562       4.68529556      16.26054765  F      -0.00000410       0.00322038      -0.00571735
Ti       4.40399925       0.73026345      16.85089020  F       0.00008729      -0.02372928      -0.04876067
Ti       1.46801149       0.72607390      16.87311160  F      -0.00007490      -0.01681612      -0.04566205
Ti       0.01652968       2.86978005      18.07020234  F       0.00206261      -0.00086108      -0.00266132
Ti       2.91944046       2.86979383      18.07015894  F      -0.00201760      -0.00097633      -0.00242112
Ti       0.03243692       5.71122551      18.49501287  F      -0.00702080      -0.00636961       0.00525273
Ti       2.90356258       5.71121173      18.49501287  F       0.00703132      -0.00629366       0.00531717
Ti       1.46800562       0.94290381      19.71953314  F      -0.00002224      -0.01187542       0.00491091
Ti       4.40397576       0.88285129      19.68281576  F       0.00006274      -0.00415765       0.01086119
Ti       1.46799975       4.05803441      20.29720256  F      -0.00005013      -0.00587624      -0.00628141
Ti       4.40398751       4.06174850      20.21096446  F       0.00001040      -0.01499376      -0.00732887
Ti       2.96992791       2.13212287      21.70331327  F       0.00438110       0.00354014       0.00050310
Ti       5.83805885       2.13210220      21.70331327  F      -0.00438231       0.00358770       0.00043532
Ti       2.93701536       6.12814780      21.69606528  F      -0.00402362      -0.00971091       0.00556405
Ti       5.87094204       6.12811335      21.69606528  F       0.00421422      -0.00948469       0.00546819
Ti       4.40399338       4.05602232      23.06797588  F      -0.00007950      -0.00886231      -0.00314985
Al       1.46797626       4.06658578      23.12053469  F       0.00009938      -0.00169587      -0.00451847
Ti       4.40397576       0.86840837      23.72875851  F       0.00003913      -0.01764264      -0.00502921
Ti       1.46801149       0.95782908      23.73379305  F      -0.00002303      -0.00526861      -0.00600425
Ti       2.90740286       5.68787979      24.90983423  F      -0.00155733       0.00194824      -0.01216517
Ti       0.02860251       5.68790736      24.90983423  F       0.00150665       0.00176944      -0.01209456
Ti       2.92706232       2.90319309      25.32349066  F       0.00223476      -0.01528562       0.01965230
Ti       0.00891957       2.90319309      25.32349066  F      -0.00217975      -0.01527832       0.01969286
Ti       4.40400512       0.74552637      26.52461771  F       0.00004249       0.01827475      -0.00193357
Ti       1.46802911       0.74803459      26.52674437  F      -0.00008079       0.02284468      -0.01015182
Ti       4.40401099       4.69512171      27.14143497  F       0.00001625      -0.00577985      -0.00840494
Ti       1.46799975       4.70913741      27.17915058  F      -0.00002933       0.00540933      -0.00615361
Ti       5.86733076       2.52095174      28.28922199  F      -0.00348156       0.01670942      -0.03151090
Ti       2.94070297       2.52094485      28.28922199  F       0.00354023       0.01671031      -0.03140299
Ti       0.00040517       6.61036644      28.80543537  F      -0.00075032       0.02654546       0.04392339
Ti       2.93564718       6.61035265      28.80547877  F       0.00073836       0.02668681       0.04366871
Ti       1.46804085       4.44227407      29.97401155  F       0.00002312      -0.02281134       0.05543698
Ti       4.40404623       4.44142651      29.95231097  F      -0.00004365      -0.02358560       0.03859159
Ti       1.46802911       1.49951453      30.56231424  F       0.00005049      -0.00344231      -0.02794721
Ti       4.40404035       1.50280829      30.56569953  F      -0.00009790      -0.01284914      -0.03108378
Ti       2.93753796       6.23316219      31.78726853  F       0.00679970      -0.01303166       0.37449619
Ti       5.87053100       6.23316219      31.78726853  F      -0.00685908      -0.01297056       0.37458156
Ti       2.93936416       3.41799789      32.19228813  F       0.00606526       0.24033470      -0.57369668
Ti       5.86871068       3.41801167      32.19228813  F      -0.00600414       0.24028552      -0.57368466
Ti       4.40405210       1.32161712      33.37674914  F       0.00059406      -0.48492446       0.67203946
Ti       1.46803498       1.32224418      33.37332044  F      -0.00061885      -0.48803560       0.66976340
Ti       4.40403448       5.03169834      33.99239456  F       0.00070423       0.41491088       0.30616300
Ti       1.46803498       5.03046491      33.99018110  F      -0.00065055       0.40172337       0.30404072
