64
Lattice="5.088765 0.0 0.0 0.0 9.739025 0.0 0.0 0.0 38.303587" Properties=species:S:1:pos:R:3:move_mask:L:1:forces:R:3 job_name=BondOrder-VacuumGB-T2-V-V-52-d-6.97 top_level=BondOrder-VacuumGB solute=V energy=-481.21813195 stress_kbar_3x3="_JSON [[-19.40261827, -0.46858723, -0.29480491], [-0.46858721, -21.64876918, 0.0396876], [-0.29480492, 0.03968763, -22.68422325]]" pbc="T T T"
Ti       2.55780157       9.25205427       8.31072927  F       0.83541401       0.05733042       0.98400024
Ti       5.07924901       4.38765476       8.33424767  F       0.86390796      -0.00420534       0.94287201
Ti       1.28222121       1.87834627       8.94932667  F      -0.83028036      -0.42691966       0.65222859
Ti       3.80662521       6.75066361       8.93526926  F      -0.83180542      -0.41067454       0.65664263
Ti       2.70657671       4.08139164       9.73799753  F      -0.14060851      -0.08881810       0.09284885
Ti       0.16850936       8.94215850       9.70298805  F      -0.15152678      -0.08525170       0.14527715
Ti       1.02695858       6.22027631      10.45373836  F       0.10555997       0.26734293      -0.65903522
Ti       3.59214904       1.34953669      10.46162890  F       0.09506004       0.24666017      -0.69276396
Ti       0.22313217       3.50173461      11.10386514  F       0.04754121       0.24452017      -0.45903960
Ti       2.76958580       8.37223075      11.08609227  F       0.06597934       0.25703907      -0.45515020
Ti       1.11109113       0.87172065      11.83477419  F      -0.05005006       0.02559635      -0.19250445
Ti       3.64943326       5.74865429      11.84385214  F      -0.05331605       0.00513127      -0.19190589
Ti       2.75790199       3.10923243      12.53266554  F       0.02046358      -0.08114820      -0.04264449
Ti       0.21457795       7.98268923      12.52423875  F       0.02654864      -0.08698395      -0.04298924
Ti       3.61073321       0.43604537      13.19493456  F       0.00612439       0.04444019      -0.02812512
Ti       1.06634562       5.30908339      13.19489626  F       0.00495599       0.03722116      -0.02232042
Ti       2.75301169       7.52463367      13.91963843  F      -0.00685457      -0.03052377       0.02938988
Ti       0.21016091       2.65307597      13.92002146  F      -0.01255416      -0.03045210       0.02804505
Ti       3.61168480       4.87221995      14.64349961  F       0.00850847       0.01976580      -0.02953264
Ti       1.06790787       0.00063304      14.64372944  F       0.00817832       0.02056232      -0.03260269
Ti       0.21536671       7.06855513      15.31228024  F       0.00691176      -0.00105799       0.00054219
Ti       2.75995785       2.19988992      15.30963730  F       0.00469558      -0.00406176       0.00055905
Ti       1.10867905       4.43711927      16.00036588  F       0.00245725       0.01300972      -0.01035812
Ti       3.65189114       9.30347632      15.99749311  F       0.00370908       0.01063678      -0.00614873
Ti       0.22609892       1.80487507      16.73928038  F      -0.00612688       0.00499879      -0.00055368
Ti       2.77327006       6.67506930      16.74705600  F      -0.00756316       0.00206827      -0.00427496
Ti       1.03865765       8.82605958      17.38760689  F      -0.00685960       0.01530654       0.00415745
Ti       3.58815436       3.95701455      17.38262742  F      -0.00913743       0.01614550       0.00312466
Ti       2.71263234       1.22988303      18.11376629  F       0.01302992      -0.01283957       0.00467441
Ti       0.17040238       6.09953188      18.12996871  F       0.00710885      -0.00712191      -0.00260000
Ti       3.82187115       8.29830181      18.89565741  F       0.00471081      -0.00941899       0.00629048
Ti       1.27817564       3.42989956      18.88780518  F       0.00892854      -0.00837301       0.00473099
Ti       5.08801186       0.92431138      19.51720972  F       0.01102557      -0.00791207      -0.00749623
Ti       2.55895163       5.79373623      19.52092517  F       0.00396588      -0.00405576      -0.00648585
Ti       3.82657317       3.43473012      20.13006711  F       0.00086972      -0.01096564      -0.00605074
Ti       1.28245529       8.30334663      20.13531470  F      -0.00015003      -0.01597162      -0.00694165
Ti       2.38470214       1.23978762      20.90475716  F      -0.01468921       0.01390821      -0.01758642
Ti       4.93268749       6.12372362      20.92655190  F      -0.01650413       0.00711415      -0.01433700
Ti       1.49836650       3.95866045      21.63290835  F       0.01059007       0.00991610      -0.00958111
Ti       4.03773657       8.82227110      21.65060461  F       0.01446946      -0.00041784      -0.01645275
Ti       4.87088444       1.79762923      22.28219245  F      -0.00332186       0.01440208      -0.00283795
Ti       2.32854253       6.67309228      22.30559594  F       0.00535762       0.01979617      -0.00550937
Ti       1.43493504       9.28819579      22.99605640  F       0.01763146       0.00037755       0.01120254
Ti       3.97622866       4.43664206      22.99762685  F       0.02031486      -0.00298482       0.01421517
Ti       4.88702091       7.07111649      23.76270270  F      -0.01250476       0.02701219       0.03312634
Ti       2.33373307       2.18759927      23.70099562  F      -0.01032112       0.01224683       0.04170997
Ti       1.50002035       4.87101231      24.35840008  F      -0.04722136      -0.00795754       0.00951526
Ti       4.03703940       9.73494435      24.39517152  F      -0.03667018      -0.02535794       0.02018839
Ti       2.34392078       7.55896373      25.12041164  F       0.01924942      -0.00596451       0.01724708
Ti       4.87371379       2.68290661      25.08195484  F       0.03402398      -0.00286519       0.01855985
Ti       3.98331731       5.33986845      25.83615247  F       0.07062072      -0.02737710       0.14432836
Ti       1.39014373       0.42447540      25.82186523  F       0.10876512       0.00278965       0.15836560
V        4.91029183       7.97295995      26.45881558  F      -0.08621965      -0.01687812       0.15475731
Ti       2.34475534       3.09852924      26.46977040  F      -0.12684088      -0.01652797       0.21922387
Ti       1.36868950       5.73717198      27.11855656  F       0.10460186       0.11323169       0.44551305
Ti       3.96275361       0.81795149      27.09473173  F       0.02958394       0.12870006       0.37611372
Ti       2.30987185       8.32414919      27.85298954  F       0.10931696       0.34965315       0.41417413
Ti       4.85355210       3.47572168      27.88083625  F       0.12924386       0.27682544       0.38846719
Ti       1.53614040       1.34306998      28.53333785  F      -0.20757261       0.15834902       0.15826058
Ti       4.06165376       6.23600484      28.48794810  F      -0.22948455       0.17432620       0.09090122
Ti       4.94090076       8.96104247      29.19583669  F      -0.74219738      -0.65365600      -0.68061806
Ti       2.37856000       4.08634880      29.25827154  F      -0.77840614      -0.59699833      -0.56089881
Ti       3.82665459       1.88245614      30.02870989  F       0.79930510       0.06239746      -1.02421832
Ti       1.25948460       6.75454948      30.02576051  F       0.79005754       0.02491968      -1.03968956
