64
Lattice="5.088765 0.0 0.0 0.0 9.739025 0.0 0.0 0.0 38.303587" Properties=species:S:1:pos:R:3:move_mask:L:1:forces:R:3 job_name=BondOrder-VacuumGB-T2-Al-Al-34-d-0.63 top_level=BondOrder-VacuumGB solute=Al energy=-477.37876144 stress_kbar_3x3="_JSON [[-19.20470862, -1.63625448, -1.78685985], [-1.63625448, -19.39846339, -0.8492322], [-1.78685986, -0.8492322, -20.7697226]]" pbc="T T T"
Ti       2.53286662       9.26826975       8.34183178  F       0.87309778       0.02031871       0.91527900
Ti       5.07089835       4.39860142       8.33849937  F       0.87860532       0.00346920       0.90940506
Ti       1.26215621       1.88746200       8.96411186  F      -0.81564416      -0.45863620       0.59895228
Ti       3.80669646       6.75534808       8.95664266  F      -0.81063528      -0.45897440       0.61672998
Ti       2.72571046       4.07235383       9.74814798  F      -0.15755495      -0.04246720       0.09989828
Ti       0.17755210       8.94009382       9.73661860  F      -0.15668935      -0.04970512       0.08522309
Ti       1.03326356       6.20348623      10.45959881  F       0.12323014       0.26817380      -0.68894355
Ti       3.58227683       1.34020671      10.46201193  F       0.12879794       0.24325898      -0.68952446
Ti       0.23253112       3.48426280      11.11914827  F       0.04343370       0.26058669      -0.46692082
Ti       2.77746320       8.34966543      11.11493488  F       0.04064939       0.28555081      -0.46542567
Ti       1.12050534       0.86152389      11.84749098  F      -0.04173207       0.01557959      -0.19998742
Ti       3.66767649       5.73035466      11.86147179  F      -0.05149168       0.01788026      -0.18842685
Ti       2.77581953       3.09431224      12.53982831  F       0.00910846      -0.06695267      -0.04107202
Ti       0.22700981       7.96274371      12.52400893  F       0.02293085      -0.07436048      -0.04035217
Ti       3.64657847       0.43755492      13.20029706  F       0.00809463       0.04599362      -0.02293259
Ti       1.10650106       5.30148695      13.19489626  F       0.01332790       0.04223157      -0.02146801
Ti       2.78500475       7.53553164      13.93607067  F      -0.00125520      -0.02702641       0.03513038
Ti       0.24298344       2.66300978      13.92385182  F      -0.00230832      -0.03136294       0.02164662
Ti       3.63513892       4.86696088      14.64702354  F       0.01232343       0.03312168      -0.01761103
Ti       1.08083842       9.73313289      14.61358451  F       0.01126994       0.03159876      -0.03855880
Ti       0.25274878       7.07285978      15.29941024  F       0.00929337       0.01181827       0.00900393
Ti       2.79661223       2.19536128      15.33223641  F       0.00360635      -0.00041323       0.00174572
Ti       1.14584230       4.42243282      16.00630294  F      -0.00171773       0.01654260       0.00013095
Ti       3.68013378       9.29965863      16.04334250  F       0.00187931       0.01298825      -0.02090091
Ti       0.28047746       1.79494126      16.70404108  F      -0.01053110       0.00245103       0.00127813
Ti       2.79161506       6.67134899      16.74583029  F      -0.02248899      -0.00275109      -0.00270908
Ti       1.11693303       8.87667329      17.35807482  F      -0.00992346       0.01088611       0.00573464
Ti       3.68240846       3.96864295      17.39469305  F       0.00086500       0.02428258       0.01770612
Ti       2.75543903       1.32633834      18.19098632  F      -0.00284665       0.00580527      -0.00750081
Ti       0.25906903       6.23081394      18.05500859  F       0.01673577      -0.00694581       0.00920362
Ti       3.79892082       8.36704959      18.86122249  F       0.00318990      -0.01843246       0.01440320
Ti       1.19161066       3.54599848      18.82494899  F      -0.00285496      -0.00995063       0.01534198
Ti       0.11871580       0.98556011      19.46553818  F       0.00718717       0.00240542      -0.00776952
Ti       2.51809394       5.83490309      19.61415610  F       0.00545239      -0.01069401      -0.00419329
Al       3.81964736       3.40119866      20.14734203  F      -0.00140524      -0.00514041       0.00258376
Ti       1.24883382       8.28717985      20.09563219  F      -0.00254509      -0.01772592      -0.00448367
Ti       2.36428602       1.13036968      21.02847775  F      -0.01699165       0.00654380      -0.00567394
Ti       4.99746238       6.00462508      20.80788739  F      -0.00195683      -0.00385994      -0.01221029
Ti       1.50510402       3.91620804      21.61333521  F       0.01215223      -0.02293524      -0.00475209
Ti       4.08626303       8.82159911      21.59131065  F       0.00540577      -0.01006204      -0.00268795
Ti       4.86357188       1.76871407      22.23779859  F       0.00147677       0.00511534       0.00521128
Ti       2.26503475       6.68399025      22.27035664  F       0.00420861       0.02457699      -0.00730880
Ti       1.38610834       9.27580775      23.08331197  F       0.02333751      -0.00325779      -0.02007709
Ti       3.92657758       4.43638884      22.93316191  F       0.01832786      -0.00892034       0.00008338
Ti       4.82732970       7.03615339      23.69214749  F      -0.00647465       0.02658675       0.03895463
Ti       2.26371167       2.18134682      23.72190938  F      -0.00503590       0.02310723       0.02649466
Ti       1.44055813       4.85705629      24.33036186  F      -0.03751225      -0.02321426      -0.00034475
Ti       3.96568474       9.72989953      24.32346721  F      -0.04090485      -0.01428804       0.00472649
Ti       2.30950546       7.49459852      25.10516681  F       0.00737447       0.00731427       0.01610208
Ti       4.83417918       2.64069767      25.06586733  F       0.01345256      -0.02082875      -0.00015492
Ti       3.98790738       5.29005334      25.78329352  F       0.06256679      -0.01005655       0.12221527
Ti       1.44021718       0.42584861      25.81968192  F       0.07169319      -0.01832545       0.15879314
Ti       4.84637695       7.97340794      26.44751602  F      -0.12237537      -0.02817127       0.16787714
Ti       2.29299751       3.10081791      26.46789353  F      -0.12872381      -0.01442882       0.17490410
Ti       1.39940529       5.72385873      27.14337728  F       0.12540768       0.18108926       0.45090528
Ti       3.94428140       0.86211797      27.14284103  F       0.09664868       0.15102458       0.43642565
Ti       2.28583762       8.35698918      27.89757491  F       0.11485169       0.30916482       0.41819601
Ti       4.82721775       3.49598859      27.87980205  F       0.11546098       0.28485780       0.43925882
Ti       1.48714068       1.35650010      28.53314633  F      -0.25160160       0.12575125       0.18634352
Ti       4.03370626       6.22103596      28.51709713  F      -0.26149466       0.13447885       0.15397099
Ti       4.90709100       8.96097429      29.26122091  F      -0.77001560      -0.60790776      -0.56382830
Ti       2.36050507       4.09739286      29.27240556  F      -0.79116982      -0.62091563      -0.57781666
Ti       3.79833053       1.89773667      30.03602587  F       0.82468386       0.02553131      -1.01521420
Ti       1.25136802       6.76215566      30.03954980  F       0.81575384       0.02862540      -1.02100951
