52
Lattice="5.088765 0.0 0.0 0.0 5.495746 0.0 0.0 0.0 48.722931" Properties=species:S:1:pos:R:3:move_mask:L:1:forces:R:3 job_name=BondOrder-VacuumGB-C1-Al-Al-26-d-0.00 top_level=BondOrder-VacuumGB solute=Al energy=-390.81375913 stress_kbar_3x3="_JSON [[-36.24618931, 2.04042564, -0.27478072], [2.04042565, -23.3768292, -0.02146603], [-0.27478073, -0.02146603, -23.07599628]]" pbc="T T T"
Ti       2.61629184       0.79484974       8.00011038  F       0.10472460      -0.02571296       1.66785210
Ti       0.03330597       1.59949840       9.37633829  F      -0.07305815      -0.59068060       0.31810896
Ti       0.81948963       4.34567322       9.37848210  F      -0.06516398       0.59682442      -0.03473314
Ti       2.57314420       2.35793333      10.59061117  F      -0.19990460      -0.34957267      -0.67563261
Ti       3.36743426       5.10566894      10.58910076  F       0.24813791       0.41484726      -0.53545983
Ti       0.81229920       0.38783480      11.83441016  F      -0.04840420      -0.04039663      -0.22155377
Ti       0.03468502       3.13584519      11.83475122  F       0.02732481      -0.02340196      -0.34887588
Ti       3.37309297       1.18055219      13.08098635  F      -0.06180993      -0.03518359       0.03796674
Ti       2.56491567       3.92977714      13.07426258  F       0.06258174       0.02857003       0.03436350
Ti       0.01464038       4.70258345      14.32117983  F      -0.04253077       0.04080292       0.06066971
Ti       0.83235402       1.95472144      14.32005920  F       0.03232216      -0.01497138       0.01915134
Ti       3.36150585       2.74227833      15.56765858  F      -0.00527996       0.00949907      -0.00762477
Ti       2.55548619       5.49078884      15.56765858  F       0.00112363       0.01900265      -0.01352132
Ti       0.82669532       3.54235453      16.82168937  F       0.00370976      -0.01071889       0.01371436
Ti       0.01005031       0.79799331      16.80463635  F       0.01200328      -0.00212956       0.01315776
Ti       2.55193932       1.57745497      18.06431901  F       0.00107005      -0.00107021       0.00296431
Ti       3.37509285       4.31862865      18.05160232  F      -0.01164908      -0.00412970       0.00737704
Ti       0.79677847       5.11157137      19.29369600  F      -0.00083178       0.00227634      -0.00609374
Ti       0.01495588       2.34824983      19.31196710  F      -0.00338319       0.00224042      -0.00348055
Ti       3.33236249       0.40924073      20.56273346  F      -0.00714834      -0.00053079      -0.01433556
Ti       2.56106856       3.15980664      20.54592405  F       0.00253414      -0.00770896      -0.00459471
Ti       0.01729671       3.90360640      21.78923580  F       0.00557304      -0.00633818      -0.00422874
Ti       0.84351878       1.20517313      21.78387628  F       0.00695553       0.00226277      -0.00317254
Ti       2.64578632       4.61595950      23.00029298  F       0.00524644      -0.00900381       0.00144964
Ti       3.39769715       1.88329323      22.95751424  F       0.00549066      -0.00302391       0.00891176
Ti       0.73683791       2.77550561      24.36117316  F       0.01016726      -0.00226026       0.00090669
Al       0.11083839       0.01303041      24.36146550  F      -0.00653848       0.01911306      -0.00015937
Ti       3.39761573       1.88364496      25.76527059  F       0.00428582      -0.00199022      -0.00488861
Ti       2.64578632       4.61630024      25.72258930  F       0.00532134      -0.00833358      -0.00263418
Ti       0.01738322       3.90383173      26.93364647  F       0.00676391      -0.01057252       0.00789171
Ti       0.84361037       1.20535449      26.93910344  F       0.00646348       0.00493476       0.00620439
Ti       3.33248971       0.40936163      28.16019754  F      -0.00641703      -0.00136278       0.01157763
Ti       2.56107365       3.15999350      28.17715312  F       0.00489667      -0.00694842       0.01256662
Ti       0.79688533       5.11173624      29.42938117  F      -0.00064176       0.00385589       0.00766386
Ti       0.01496097       2.34842569      29.41111007  F      -0.00064414       0.00037965       0.00345753
Ti       2.55203600       1.57772426      30.65861199  F       0.00721450      -0.00425063      -0.00459986
Ti       3.37523025       4.31890893      30.67132868  F      -0.00626560      -0.00124965      -0.00272580
Ti       0.01013173       0.79831756      31.91824593  F       0.00155253      -0.00944621      -0.00955595
Ti       0.82681745       3.54265130      31.90114418  F      -0.00970598      -0.00406282      -0.01130864
Ti       3.36153129       2.74260808      33.15517498  F       0.00013156       0.01473829       0.01704403
Ti       2.55548110       5.49110759      33.15517498  F       0.00591285       0.01236652       0.01483748
Ti       0.83241509       1.95507867      34.40296924  F       0.03640056       0.03940867      -0.05121876
Ti       0.01469635       4.70289121      34.40179989  F      -0.03705105      -0.01104786      -0.02531864
Ti       2.56502762       3.93002445      35.64886331  F       0.05358599      -0.03588524      -0.03257674
Ti       3.37309806       1.18078851      35.64199338  F      -0.07726854       0.03044032      -0.03364349
Ti       0.81223814       0.38804913      36.88861829  F      -0.03205049      -0.02606498       0.34539845
Ti       0.03467484       3.13604853      36.88832595  F       0.04832369      -0.04011670       0.22043574
Ti       2.57313911       2.35815866      38.13222238  F      -0.25335475       0.40081635       0.51562415
Ti       3.36747497       5.10597121      38.13397641  F       0.19948798      -0.33792361       0.67199838
Ti       0.81957105       4.34600846      39.34430273  F       0.06112745      -0.56921455      -0.32959343
Ti       0.03364183       1.59990509      39.34659271  F       0.07443677       0.58371424       0.03092273
Ti       3.31161051       3.54188189      40.72272318  F      -0.09576830      -0.03078984      -1.67068599
