64
Lattice="5.872 0.0 0.0 0.0 6.890708 0.0 0.0 0.0 43.394398" Properties=species:S:1:pos:R:3:move_mask:L:1:forces:R:3 job_name=BondOrder-VacuumGB-T1g-V-V-38-d-3.19 top_level=BondOrder-VacuumGB solute=V energy=-484.9758789 stress_kbar_3x3="_JSON [[-17.96457755, -0.00077612, 0.00037922], [-0.00077613, -23.31573321, 0.28320846], [0.00037924, 0.28320845, -22.47783303]]" pbc="T T T"
Ti       4.40400587       5.15690251       8.20349397  F      -0.00021231      -0.10804946       1.17192655
Ti       1.46809395       5.15657864       8.20509956  F       0.00036003      -0.10617743       1.16818671
Ti       5.87178861       3.06553128       9.38694599  F       0.00009318       0.28235815      -0.18813073
Ti       2.93636994       3.06559330       9.38677241  F      -0.00038078       0.28249027      -0.18678243
Ti       5.87147152       6.76531779      10.00731231  F       0.00249986      -0.44249274      -0.37254569
Ti       2.93666354       6.76533157      10.00726891  F      -0.00299292      -0.44262546      -0.37240045
Ti       4.40416442       1.84305767      11.41303043  F      -0.00053987       0.11761217      -0.04015696
Ti       1.46794715       1.84264423      11.41268328  F       0.00047618       0.11965150      -0.03806918
Ti       1.46795890       4.67828082      11.43329562  F       0.00043011       0.32025099      -0.22596041
Ti       4.40401762       4.67737125      11.43251452  F      -0.00025430       0.32378919      -0.22257033
Ti       5.87166530       6.77394495      12.84235512  F      -0.00018328      -0.10926522      -0.02071595
Ti       2.93631122       6.77394495      12.84231172  F       0.00013445      -0.10907154      -0.02090004
Ti       2.93607046       3.03623888      13.45998758  F      -0.00104141      -0.08914588      -0.07829786
Ti       5.87198238       3.03625956      13.46007437  F       0.00105372      -0.08907689      -0.07840190
Ti       4.40391779       5.13703660      14.63081184  F       0.00007853      -0.00085509       0.00040294
Ti       1.46802936       5.13769121      14.62907606  F       0.00000326      -0.00319635      -0.00098857
Ti       4.40395890       1.06268499      15.06284646  F       0.00016787       0.02790993       0.05539737
Ti       1.46800000       1.06380817      15.06367096  F       0.00003602       0.02907416       0.05735852
Ti       2.93507810       3.22643621      16.27749906  F       0.00038924       0.01335708      -0.01127077
Ti       0.00085731       3.22642243      16.27749906  F      -0.00031627       0.01323039      -0.01094799
Ti       2.93533059       6.15847381      16.87942275  F       0.00063481      -0.00444378      -0.02543477
Ti       0.00057546       6.15850826      16.87946615  F      -0.00056468      -0.00469701      -0.02620310
Ti       4.40397064       1.43157215      18.03636080  F      -0.00007499       0.01087967       0.01432906
Ti       1.46792366       1.43291584      18.03844373  F       0.00033614       0.01330922       0.01677138
Ti       4.40395890       4.25408884      18.55184285  F       0.00016776      -0.01090615       0.00792531
Ti       1.46797651       4.25020248      18.55609550  F      -0.00007633      -0.01539526       0.00347614
Ti       2.93357486       6.41848089      19.72275389  F       0.00330892      -0.01206185      -0.00964071
Ti       0.00240165       6.41853602      19.72266710  F      -0.00342938      -0.01263888      -0.00865329
Ti       2.93784968       2.44021331      20.31309128  F      -0.00399874      -0.00311911      -0.00835919
Ti       5.87009747       2.44009617      20.31304789  F       0.00402022      -0.00195789      -0.00739180
Ti       1.46807634       4.59403502      21.52921929  F      -0.00086634      -0.01881486       0.00333382
Ti       4.40395302       4.61048314      21.50053559  F       0.00078160      -0.00903950       0.00410920
Ti       4.40395302       0.53679304      21.98520762  F       0.00092382      -0.00819280      -0.00741489
Ti       1.46803523       0.53671725      21.96177464  F      -0.00063465       0.00966920      -0.00199820
Ti       5.81503573       2.65385972      23.16002416  F       0.00541689      -0.01477295       0.00175407
Ti       2.99309346       2.65376325      23.15980718  F      -0.00619778      -0.01392187       0.00334185
Ti       5.84483026       5.72492424      23.71829309  F       0.00344198       0.01587495      -0.00194312
Ti       2.96319323       5.72507583      23.71785914  F      -0.00381465       0.01438750       0.00226526
V        4.40400587       3.88781325      25.12717901  F      -0.00029262      -0.01737841      -0.01023058
Ti       1.46800000       3.77306229      25.12800350  F       0.00130702      -0.00499030      -0.01170007
Ti       4.40394715       0.98636351      25.11758884  F       0.00024596       0.01887408       0.00582357
Ti       1.46798238       0.90173872      25.11971517  F       0.00008965       0.01911091      -0.00083949
Ti       5.84441334       5.72899665      26.52547669  F      -0.00734911       0.00316923       0.04730319
Ti       2.96366299       5.72912757      26.52573706  F       0.00688572       0.00183667       0.04336583
Ti       2.99287619       2.64543927      27.08526443  F       0.00436311       0.01086936      -0.01452617
Ti       5.81528235       2.64555641      27.08500406  F      -0.00502149       0.00934067      -0.01214159
Ti       4.40386494       0.53056384      28.26402985  F       0.00159141       0.03072407      -0.02529752
Ti       1.46811157       0.53182484      28.28794017  F      -0.00099388       0.02338486      -0.02216227
Ti       1.46810570       4.59007976      28.71186004  F      -0.00081328       0.03876899      -0.02248822
Ti       4.40391192       4.60916702      28.73963246  F       0.00096978       0.04355081      -0.02999944
Ti       2.93765003       2.44200490      29.92998419  F      -0.00484552      -0.10755696       0.05189661
Ti       5.87034997       2.44195666      29.93011437  F       0.00477128      -0.10686822       0.05003113
Ti       2.93396242       6.41819148      30.52244790  F      -0.00498624       0.11893554       0.10988890
Ti       0.00207282       6.41817081      30.52253469  F       0.00494505       0.11940581       0.10803525
Ti       4.40403523       4.25916040      31.69192693  F      -0.00054114       0.02614438       0.24943213
Ti       1.46797064       4.25384077      31.68971382  F       0.00072889       0.02701202       0.25084121
Ti       4.40408808       1.44291426      32.20536945  F      -0.00097569      -0.26589937       0.40290483
Ti       1.46793541       1.44413391      32.20367707  F       0.00090266      -0.27229713       0.40944336
Ti       2.93601762       6.17614847      33.35909631  F      -0.00373634       0.37196673       0.07389555
Ti       0.00004698       6.17623116      33.35883594  F       0.00368752       0.37100494       0.07523188
Ti       0.00076336       3.23652420      33.96535944  F       0.00376587      -0.31911541       0.10100683
Ti       2.93528949       3.23653109      33.96557641  F      -0.00387109      -0.31991845       0.09961637
Ti       1.46803523       1.08082133      35.18908147  F       0.00047983       0.10511489      -1.24249909
Ti       4.40405872       1.07967058      35.18903807  F      -0.00048325       0.11088390      -1.23223208
