64
Lattice="5.871999 0.0 0.0 0.0 6.890708 0.0 0.0 0.0 43.401158" Properties=species:S:1:pos:R:3:move_mask:L:1:forces:R:3 job_name=BondOrder-VacuumGB-T1m-Al-Al-35-d-0.00 top_level=BondOrder-VacuumGB solute=Al energy=-481.9255865 stress_kbar_3x3="_JSON [[-17.82516534, -0.00202299, 3.851e-05], [-0.00202299, -25.34575286, -0.48450414], [3.847e-05, -0.48450413, -19.26912377]]" pbc="T T T"
Ti       2.93601712       0.09784116       8.85696112  F       0.00014656      -0.28020350       0.19817215
Ti       2.93600537       2.93611001       8.85674411  F       0.00041420       0.12418327       0.98619847
Ti       0.00003523       0.09951560       8.85696112  F      -0.00032914      -0.28398310       0.19865433
Ti       0.00002349       2.93632362       8.85670071  F      -0.00041776       0.12640754       0.98381728
Ti       4.40331810       5.02500746      10.27296730  F       0.00373721       0.20084122      -0.29685572
Ti       1.46870439       5.02499368      10.27296730  F      -0.00372102       0.20113036      -0.29672335
Ti       4.40433395       1.31406491      10.89325665  F      -0.00014334      -0.06219291      -0.71495111
Ti       1.46768266       1.31407869      10.89325665  F       0.00014083      -0.06234655      -0.71477544
Ti       2.93601124       3.40459546      12.07376814  F       0.00019729       0.01441080       0.04735288
Ti       0.00001762       3.40556705      12.07559099  F      -0.00023636       0.01800323       0.05260786
Ti       2.93599950       6.22249537      12.48694717  F       0.00009690       0.00828278      -0.04216236
Ti       0.00000587       6.22333604      12.48655656  F      -0.00008428       0.00688651      -0.04552012
Ti       1.46878660       1.48099920      13.71046921  F      -0.00004553       0.02024784       0.00780204
Ti       4.40321827       1.48099920      13.71042581  F       0.00009877       0.02028899       0.00793376
Ti       1.46908020       4.43472875      14.31387551  F      -0.00306541      -0.03633827       0.02502270
Ti       4.40294816       4.43475631      14.31383211  F       0.00294694      -0.03657714       0.02511882
Ti       2.93602886       6.58015757      15.48002123  F       0.00013942       0.00841517       0.01935099
Ti       5.87199313       6.58327217      15.47693975  F      -0.00019195       0.01056963       0.01843472
Ti       2.93599950       2.51119450      15.97301498  F       0.00013940      -0.02337929      -0.02166871
Ti       5.87199313       2.51459851      15.98091399  F      -0.00009056      -0.02326123      -0.01762711
Ti       4.41268981       4.65814617      17.14154776  F       0.00031677       0.01878408       0.01924269
Ti       1.45932094       4.65811861      17.14163456  F      -0.00040847       0.01888475       0.01962912
Ti       4.40515603       0.73534190      17.74508426  F       0.00269799       0.00250791       0.00892548
Ti       1.46684297       0.73537636      17.74491066  F      -0.00264843       0.00228608       0.00876862
Ti       5.87198726       2.87680168      18.99633965  F       0.00004057      -0.00082864       0.00338164
Ti       2.93604060       2.87992317      18.97967360  F      -0.00007559      -0.00057925       0.00749502
Ti       5.87179935       5.70922032      19.37241068  F       0.00000742      -0.00275587      -0.00617061
Ti       2.93614043       5.69876022      19.32688287  F       0.00001517       0.00246594      -0.00391867
Ti       1.49577431       0.89849320      20.57015244  F      -0.00094017      -0.00596186      -0.00158829
Ti       4.37648306       0.89866547      20.57045625  F       0.00085037      -0.00606743      -0.00099136
Ti       1.42910363       4.13628529      21.16878461  F       0.00431918       0.00613110      -0.01246853
Ti       4.44271921       4.13611302      21.16882801  F      -0.00435335       0.00610131      -0.01224032
Ti       2.93533596       2.22336962      22.55662344  F      -0.00018354      -0.00680402       0.01455500
Ti       0.00115091       2.09683555      22.55662344  F       0.00086194       0.00600429       0.00675462
Ti       2.93586444       6.26127628      22.55662344  F      -0.00013279       0.00969489       0.00739118
Al       5.87188743       6.19993520      22.55649324  F      -0.00022466       0.00852012       0.00438692
Ti       4.44281904       4.13609235      23.94424526  F       0.00649419       0.01058323       0.01986290
Ti       1.42899793       4.13623706      23.94437547  F      -0.00666395       0.01092853       0.01990310
Ti       4.37640085       0.89873437      24.54300764  F       0.00315675      -0.00361986      -0.00048851
Ti       1.49585651       0.89857589      24.54335485  F      -0.00310492      -0.00381780      -0.00035419
Ti       2.93616392       5.69860863      25.78658102  F       0.00038361       0.01794591      -0.04116446
Ti       5.87176999       5.70923410      25.74083620  F      -0.00009973       0.00827159      -0.03430432
Ti       2.93604060       2.87990250      26.13405069  F       0.00013942      -0.00683017      -0.01024377
Ti       5.87195790       2.87685681      26.11734125  F      -0.00009999      -0.00547596      -0.00568125
Ti       4.40515603       0.73538325      27.36859663  F       0.00188921      -0.00085161       0.01343426
Ti       1.46687233       0.73541081      27.36881364  F      -0.00190337      -0.00076052       0.01361063
Ti       4.41274266       4.65826331      27.97213313  F       0.00079918      -0.02931425      -0.00120899
Ti       1.45925047       4.65824264      27.97200293  F      -0.00075629      -0.02932342      -0.00101382
Ti       0.00001762       2.51472943      29.13263670  F      -0.00009765       0.01376858      -0.05127999
Ti       2.93605235       2.51129786      29.14057911  F      -0.00002029       0.01411934      -0.04200149
Ti       5.87197551       6.58349267      29.63669775  F       0.00010994       0.03944423       0.10743001
Ti       2.93604060       6.58037807      29.63361626  F       0.00004734       0.03779543       0.10740140
Ti       1.46909781       4.43476320      30.79950157  F      -0.00218603      -0.00191970      -0.05506746
Ti       4.40297165       4.43477698      30.79950157  F       0.00218294      -0.00199116      -0.05465786
Ti       1.46880421       1.48124726      31.40316828  F       0.00053274      -0.03031904       0.01936562
Ti       4.40324176       1.48124037      31.40325508  F      -0.00054776      -0.03029257       0.01924717
Ti       2.93600537       6.22261941      32.62673372  F      -0.00027980       0.13378500       0.57393889
Ti       0.00003523       6.22343251      32.62712433  F       0.00028438       0.13396703       0.57726663
Ti       2.93604060       3.40464370      33.04008635  F      -0.00064479       0.13810295       0.27940775
Ti       0.00003523       3.40563596      33.03826350  F       0.00049344       0.14747654       0.28024572
Ti       4.40439267       1.31388575      34.22120547  F      -0.00188645      -0.26442248      -0.16587832
Ti       1.46766505       1.31389264      34.22116207  F       0.00192142      -0.26494425      -0.16559249
Ti       4.40336507       5.02535889      34.84145142  F      -0.00090413      -0.02087314      -0.94261253
Ti       1.46869265       5.02536578      34.84145142  F       0.00088599      -0.02120119      -0.94289925
