52
Lattice="5.088765 0.0 0.0 0.0 5.495746 0.0 0.0 0.0 48.722931" Properties=species:S:1:pos:R:3:move_mask:L:1:forces:R:3 job_name=BondOrder-VacuumGB-C1-V-V-35-d-6.31 top_level=BondOrder-VacuumGB solute=V energy=-395.73663962 stress_kbar_3x3="_JSON [[-36.37257847, -0.01265499, -0.03759669], [-0.01265501, -25.25935506, 0.32311391], [-0.0375967, 0.32311392, -22.90973402]]" pbc="T T T"
Ti       2.61789480       0.79584447      40.07251566  F       0.04779860       0.00692238      -1.16252220
Ti       0.02890419       1.59886090       8.72803097  F       0.11564482      -0.00658867       0.76705857
Ti       0.81804951       4.34682732       8.73470601  F      -0.12000645      -0.00524532       0.75049607
Ti       2.56953118       2.35597135       9.94688381  F      -0.39241947       0.10084882      -0.02136267
Ti       3.36527154       5.10470169       9.94581191  F       0.40741452       0.09826606      -0.01909209
Ti       0.80980062       0.38881304      11.19170597  F      -0.08413464      -0.08247463      -0.58046151
Ti       0.03525496       3.13576825      11.19204703  F       0.07893796      -0.07397144      -0.58035155
Ti       3.37134243       1.18420137      12.44057214  F      -0.05589470      -0.01843141      -0.04837041
Ti       2.56472738       3.93197544      12.43818472  F       0.05134309      -0.01625910      -0.04896217
Ti       0.01254889       4.70325393      13.68495580  F      -0.00709593       0.01441691       0.07356189
Ti       0.83622657       1.95608439      13.68461474  F       0.00592017       0.00982317       0.07433635
Ti       3.37239072       2.73745856      14.93265262  F      -0.00336145       0.00041885      -0.00734037
Ti       2.56297176       5.48517218      14.93406558  F       0.00312494      -0.00064935      -0.00810036
Ti       0.82775887       3.53958467      16.18273686  F      -0.01167782      -0.01575819      -0.00138178
Ti       0.01875210       0.79217881      16.18122645  F       0.00961858      -0.01598597      -0.00235900
Ti       2.55657518       1.57321225      17.43053112  F       0.00831688       0.00075342       0.01235304
Ti       3.38096020       4.32078848      17.43067729  F      -0.01082159      -0.00238644       0.01261009
Ti       0.82645615       5.09219337      18.67184523  F      -0.00054071       0.00353750       0.00539628
Ti       0.01989198       2.34371034      18.67598668  F      -0.00106140       0.00559605       0.00524183
Ti       3.35340454       0.39175326      19.92358605  F      -0.00238820       0.00159045      -0.01684169
Ti       2.57773935       3.14065397      19.92324499  F      -0.00109446      -0.00118315      -0.01512860
Ti       0.02320986       3.91653240      21.16660547  F       0.00213044      -0.00208818      -0.01057489
Ti       0.82188135       1.16809333      21.16723887  F      -0.00505693      -0.00229427      -0.00897925
Ti       2.57281852       4.67025747      22.39276675  F       0.00603996      -0.00798140       0.00701147
Ti       3.36209615       1.92333524      22.38102452  F      -0.00337178      -0.01096011       0.00160062
Ti       0.76867831       2.72314214      23.76353769  F       0.00779189       0.00289406       0.00130705
Ti       0.06437288       5.46988302      23.77245399  F      -0.00450068       0.00120993       0.00598013
Ti       3.36397390       1.93987194      25.13835263  F      -0.00434163      -0.00300521      -0.01126121
Ti       2.55697719       4.68312301      25.16266538  F       0.00500434      -0.00102674      -0.01086000
Ti       0.03513283       3.89281825      26.36237011  F       0.00607191       0.00200542       0.00475244
Ti       0.78940994       1.16056966      26.34244243  F      -0.00197037      -0.00260612       0.00987477
Ti       3.38704127       0.35221687      27.63564646  F       0.00315473       0.00083844       0.00921127
Ti       2.56267152       3.06567001      27.64061620  F       0.00220198       0.01166088       0.00625045
Ti       0.89948501       5.12187040      28.79281607  F      -0.00679082       0.00940489       0.00518305
Ti       0.00284462       2.35205838      28.85445058  F       0.00381955       0.00199397       0.00867246
V        2.58909239       1.58756164      30.02828344  F       0.00988792      -0.00467036      -0.01316680
Ti       3.35414241       4.33698444      30.05152427  F      -0.00619950      -0.00395569      -0.01277016
Ti       0.04521368       0.77842845      31.24362823  F       0.00484600       0.00410103      -0.01666769
Ti       0.90106253       3.50293354      31.29736962  F      -0.00934876      -0.01378097      -0.02247954
Ti       3.40475018       2.76694324      32.45390583  F      -0.01399662      -0.00546050       0.01821716
Ti       2.54488629       0.05281961      32.48640403  F       0.01847673       0.00056806       0.01804022
Ti       0.80203007       1.96771339      33.76084973  F       0.02261550       0.00666802       0.00438223
Ti       0.00801989       4.73086456      33.72830282  F      -0.02269342      -0.00532202       0.01124510
Ti       2.56247306       3.93312405      34.95821576  F       0.01533121       0.01329040      -0.05208379
Ti       3.37075723       1.18038182      35.00016621  F      -0.01118953       0.01669983      -0.05171473
Ti       0.81441104       0.39500125      36.22681472  F       0.01948748      -0.00897498       0.03651371
Ti       0.02700099       3.15347005      36.23592591  F      -0.00962926      -0.00903650       0.02967149
Ti       2.55677873       2.37121655      37.46988286  F       0.09295851      -0.09509188       0.74646235
Ti       3.35348596       5.11475341      37.46885967  F      -0.09908667      -0.09654522       0.75358654
Ti       0.80172475       4.35977530      38.69994197  F       0.28948674       0.08736032       0.24941606
Ti       0.02451258       1.61092406      38.68590977  F      -0.29291121       0.10448590       0.25848164
Ti       3.31079122       3.54330529      40.08070111  F      -0.05584046       0.00637908      -1.16408183
