52
Lattice="5.088765 0.0 0.0 0.0 5.495746 0.0 0.0 0.0 48.722931" Properties=species:S:1:pos:R:3:move_mask:L:1:forces:R:3 job_name=BondOrder-VacuumGB-C1-Al-Al-33-d-5.07 top_level=BondOrder-VacuumGB solute=Al energy=-391.07866696 stress_kbar_3x3="_JSON [[-34.32310665, -0.12421884, -0.78832373], [-0.12421879, -25.78953493, -0.3567613], [-0.78832367, -0.35676128, -22.51229564]]" pbc="T T T"
Ti       2.63773081       0.79085983      40.68393972  F       0.10899844      -0.04725538      -1.60376563
Ti       0.05123369       1.59787716       9.36591158  F       0.03623096       0.59784065       0.03185545
Ti       0.83135663       4.35096013       9.37395086  F       0.06295262      -0.59571375       0.33777519
Ti       2.57034538       2.35850489      10.59056245  F      -0.22602313       0.38998996      -0.50200518
Ti       3.36590763       5.11008202      10.58037936  F       0.23022210      -0.33585708      -0.65081819
Ti       0.81357139       0.38801615      11.83777204  F      -0.01555312      -0.02498287      -0.37974114
Ti       0.03655260       3.13531760      11.81940349  F       0.05134511      -0.02608067      -0.23443750
Ti       3.38194742       1.18465202      13.07168027  F      -0.06371463       0.01980440       0.03025600
Ti       2.57639083       3.93027176      13.07168027  F       0.05949288      -0.03583542       0.03559937
Ti       0.01346487       4.70091274      14.32434682  F      -0.02961071      -0.01187753       0.02257106
Ti       0.83418089       1.95948076      14.30514999  F       0.04745365       0.03324350       0.04552415
Ti       3.37527605       2.73862366      15.57676976  F       0.00081066       0.01439085      -0.02568621
Ti       2.56837094       5.48988204      15.54851046  F       0.01058695       0.01502989      -0.01915822
Ti       0.86120223       3.54404172      16.81257819  F      -0.00737319      -0.00637093       0.00689124
Ti       0.04522385       0.79420674      16.80561081  F       0.00312299      -0.00573208       0.00316837
Ti       2.56895106       1.56084682      18.07489188  F       0.00758079      -0.00904989       0.00694213
Ti       3.39545809       4.32692723      18.03435440  F      -0.00140652       0.00290761      -0.00073732
Ti       0.82182028       5.09227581      19.32677887  F       0.00809742      -0.00395403      -0.00815571
Ti       0.03412017       2.35297617      19.26582648  F       0.00240749       0.00209941      -0.00215662
Ti       3.41574700       0.41270854      20.57481675  F      -0.00219045       0.00029269      -0.00183541
Ti       2.63180239       3.16030126      20.52604509  F       0.00270914       0.00220067      -0.00531242
Ti       0.05131002       3.90881087      21.83493791  F       0.00711325      -0.00173211       0.00196015
Ti       0.87460095       1.17494103      21.72672428  F       0.00170987       0.00374827       0.00128593
Ti       2.55145079       4.68763502      22.95805020  F      -0.00603753       0.00223463       0.00792492
Ti       3.25124249       1.94142723      23.04044067  F       0.00496731      -0.00310680      -0.00132906
Ti       0.75613959       2.81618512      24.57418982  F      -0.00634692       0.00656085      -0.00642195
Ti       0.14214447       0.07328028      24.20798827  F      -0.00197251      -0.00182255      -0.00125224
Ti       3.37377995       1.86937251      25.78417509  F      -0.00056512      -0.00220794       0.00717781
Ti       2.77055775       4.64481217      25.68107736  F      -0.00162350       0.01015689      -0.00214768
Ti       4.95445214       3.84336203      27.08507734  F       0.00453723       0.00466929       0.00610898
Ti       0.80930192       1.07990310      26.94451169  F      -0.00990145       0.00061747       0.00204305
Ti       3.28273177       0.46974339      28.26748543  F       0.00065501       0.00498784      -0.01181831
Ti       2.41130621       3.23490051      28.04681928  F      -0.01127924       0.00121298       0.00392674
Al       0.75706575       5.09113819      29.44443655  F       0.00062638       0.00039126      -0.00747544
Ti       0.11606455       2.33928077      29.43498431  F       0.00457121      -0.00379722      -0.00393246
Ti       2.41657308       1.47782808      30.79167432  F       0.00006181      -0.00626893       0.00208063
Ti       3.30231334       4.21947440      30.59785450  F      -0.00493129       0.00300836       0.00448988
Ti       4.98687266       0.81693165      31.83658630  F       0.00136552       0.00889208       0.00688582
Ti       0.83613498       3.57397156      31.92058463  F      -0.01069297      -0.00577487      -0.01181845
Ti       3.39822638       2.76954822      33.15502881  F       0.00319123      -0.01637570       0.01426854
Ti       2.62826061       0.00204442      33.16764805  F      -0.01502267       0.00327701      -0.00135293
Ti       0.83506634       1.93068854      34.33402629  F       0.03068334      -0.01613901      -0.02000228
Ti       0.02804927       4.69430686      34.44131419  F      -0.04340991       0.02357736      -0.04638735
Ti       2.55037707       3.92796904      35.63044604  F       0.07466620       0.03454503      -0.00330430
Ti       3.38009002       1.20520611      35.64974032  F      -0.05679198      -0.03497775      -0.03956750
Ti       0.84274019       0.40301405      36.88277154  F      -0.04987322      -0.03360413       0.20678404
Ti       0.06984839       3.13650468      36.85655860  F       0.02588162      -0.03058972       0.37561212
Ti       2.60349359       2.35186053      38.14274653  F      -0.27534825      -0.29294615       0.66838657
Ti       3.39042021       5.10244843      38.10435286  F       0.23120049       0.35727531       0.49452753
Ti       0.82134194       4.34811333      39.33928427  F      -0.04038873       0.59076033      -0.03427043
Ti       0.02940797       1.59607455      39.32910118  F      -0.02388974      -0.56409106      -0.32709563
Ti       3.33369575       3.53841408       8.01467853  F      -0.11929488      -0.01757102       1.62793991
