64
Lattice="5.088765 0.0 0.0 0.0 9.739025 0.0 0.0 0.0 38.303587" Properties=species:S:1:pos:R:3:move_mask:L:1:forces:R:3 job_name=BondOrder-VacuumGB-T2-V-V-41-d-2.77 top_level=BondOrder-VacuumGB solute=V energy=-481.7789401 stress_kbar_3x3="_JSON [[-18.36681031, -1.85120503, -0.13616467], [-1.85120507, -20.65782311, -1.26436526], [-0.13616469, -1.26436528, -20.48149217]]" pbc="T T T"
Ti       2.57231982       9.34188704       8.46536085  F       0.66628405       0.15291263       0.84747844
Ti       0.03192691       4.47767257       8.46221996  F       0.67282484       0.15393076       0.84614183
Ti       1.29593034       2.03725794       8.91738148  F      -0.71553439      -0.22129091       0.57550065
Ti       3.84037390       6.90541672       8.92278229  F      -0.71501451      -0.21599240       0.56577075
Ti       2.59882211       4.31091124       9.63630151  F      -0.09096192      -0.29224453       0.22228285
Ti       0.04943735       9.18189434       9.64511133  F      -0.07421750      -0.28479681       0.23298043
Ti       1.00650174       6.42275064      10.48690926  F       0.10049807       0.22530083      -0.75268885
Ti       3.54566826       1.55182598      10.48832650  F       0.09771136       0.22724326      -0.76411537
Ti       0.27739876       3.64296021      11.13324399  F       0.12952159       0.21057448      -0.44192191
Ti       2.81829036       8.50975553      11.13914274  F       0.12388262       0.20290738      -0.42803164
Ti       1.10828722       0.95966405      11.83144177  F      -0.07480034       0.02760935      -0.19032318
Ti       3.65262392       5.82817343      11.82370445  F      -0.06424651       0.03854200      -0.19866534
Ti       2.72092702       3.24832518      12.56997324  F       0.00225770      -0.12989779       0.04001426
Ti       0.17515020       8.11250070      12.57966404  F       0.00213078      -0.12669813       0.04653793
Ti       3.61178658       0.59605755      13.20734492  F       0.01896129       0.05884861      -0.02279776
Ti       1.06716491       5.47513377      13.21014108  F       0.01971087       0.06234108      -0.01507996
Ti       2.76845100       7.67422509      13.90492985  F      -0.01922563      -0.06043444       0.04813502
Ti       0.22190578       2.80457625      13.89470279  F      -0.01635286      -0.04710978       0.05258319
Ti       3.61966908       5.01850010      14.64020551  F       0.01132206       0.02758579      -0.03079500
Ti       1.06639142       0.13722286      14.65437783  F       0.01131963       0.01729585      -0.02501571
Ti       0.23418497       7.20426844      15.38969179  F      -0.01126543       0.00157863      -0.01788579
Ti       2.79319258       2.35347435      15.34483829  F      -0.01478338       0.00082725      -0.00892775
Ti       1.10843479       4.54733581      16.00281731  F      -0.00132840       0.00221979      -0.01515323
Ti       3.64158639       9.42126983      16.00572838  F      -0.00059249       0.00549742      -0.01631329
Ti       0.19140881       1.93771537      16.72510805  F      -0.01147421      -0.00361208      -0.00072237
Ti       2.72770526       6.79584295      16.71541724  F      -0.01144379      -0.00851579      -0.00180294
Ti       1.07133261       9.02609915      17.44617307  F       0.01450949       0.01089154      -0.00935542
Ti       3.63069134       4.23072985      17.43280512  F       0.01240321      -0.00330963       0.01037945
Ti       2.83466601       1.44845597      18.03754215  F       0.00323758       0.00339559       0.02774411
Ti       0.32706002       6.30350602      18.15613006  F       0.00248086       0.00457321       0.01262062
Ti       3.63135797       8.44935409      18.80587381  F      -0.00506395       0.00457441       0.01687468
Ti       1.23391356       3.58059150      18.82491069  F      -0.00270823      -0.01400903       0.02048635
Ti       0.12318373       0.89555204      19.57799751  F      -0.01220667       0.02045657       0.00683178
Ti       2.59332115       5.78513667      19.80540591  F      -0.00083618       0.00466077      -0.00899419
Ti       3.90419211       3.20781084      20.05706048  F      -0.01304160      -0.03085386       0.00102493
Ti       1.25884342       8.13628339      20.30664665  F       0.02435526      -0.00704625      -0.00185146
Ti       2.67977927       0.82979415      20.74740602  F       0.01871176       0.03409526      -0.03679700
Ti       0.06074459       5.65803266      20.87143304  F       0.00731063      -0.00147224      -0.00009772
Ti       1.68493589       3.53092247      21.54266510  F       0.01750231       0.01353277      -0.01257062
Ti       3.81441611       8.24301337      21.58568003  F       0.00042602      -0.00253371      -0.01918782
Ti       4.77207589       1.71257833      22.32053434  F      -0.01317432       0.00865462      -0.02024845
V        2.07848062       6.47517581      22.42985278  F      -0.00497701      -0.00694901       0.00754584
Ti       1.44803861       9.24940526      22.92726316  F       0.01308348      -0.00323994       0.02951481
Ti       3.90265530       4.40497075      22.98988952  F       0.01316535      -0.00365136       0.00843824
Ti       4.90010922       7.00329392      23.74741956  F      -0.00620526      -0.02440992       0.02215218
Ti       2.41147922       2.09156275      23.76894618  F      -0.01718658       0.01100879       0.03008022
Ti       1.40100316       4.69573908      24.23977387  F      -0.03022210       0.02182577       0.02331426
Ti       3.99875154       9.59318310      24.33277498  F      -0.02830660       0.01630454       0.03270306
Ti       2.31627861       7.38741081      24.98738328  F       0.02508624      -0.01846028      -0.00501134
Ti       4.88191688       2.52649787      25.02549535  F       0.03435679      -0.01894267       0.02263215
Ti       3.98979022       5.16070935      25.78118682  F       0.06929416      -0.02022241       0.17017537
Ti       1.44514819       0.28333745      25.78375316  F       0.06718171      -0.00852023       0.15508388
Ti       4.82200176       7.84738496      26.48830934  F      -0.11396241       0.01045675       0.13535160
Ti       2.28667217       3.00008717      26.47961443  F      -0.10335878       0.00967118       0.15645557
Ti       1.40863122       5.64177823      27.08370030  F       0.11303469       0.03618037       0.43595541
Ti       3.96304876       0.77406745      27.08994378  F       0.11881330       0.06211442       0.43762152
Ti       2.35420517       8.22771336      27.84643962  F      -0.08396694       0.29004908       0.29386740
Ti       4.89796176       3.35736331      27.86298677  F      -0.06202543       0.30538639       0.28722355
Ti       1.53304643       1.17578275      28.54532687  F      -0.27951813       0.31876721       0.17121162
Ti       4.06876277       6.04313319      28.54915723  F      -0.29834372       0.29075774       0.16637150
Ti       4.78900621       8.84822560      29.19009115  F      -0.53673800      -0.69880154      -0.41064237
Ti       2.24581957       3.97698929      29.18331142  F      -0.53459772      -0.67326290      -0.38504940
Ti       3.85047001       1.87985582      30.03912846  F       0.77603840       0.01783279      -1.15896355
Ti       1.30746148       6.75254324      30.02798212  F       0.78026488       0.01587277      -1.16007599
