64
Lattice="5.871999 0.0 0.0 0.0 6.890708 0.0 0.0 0.0 43.401158" Properties=species:S:1:pos:R:3:move_mask:L:1:forces:R:3 job_name=BondOrder-VacuumGB-T1m-V-V-43-d-3.62 top_level=BondOrder-VacuumGB solute=V energy=-485.77560539 stress_kbar_3x3="_JSON [[-18.80117874, -0.00038455, 0.00030125], [-0.00038457, -28.20347262, 0.0893071], [0.00030124, 0.08930709, -18.14596156]]" pbc="T T T"
Ti       2.93598776       0.09916418      34.53386741  F       0.00036088      -0.30166400      -0.19320840
Ti       2.93605822       2.93189289      34.53569026  F       0.00007011       0.13445167      -0.97903291
Ti       0.00009982       0.09925376      34.53378061  F      -0.00033707      -0.30169619      -0.19264228
Ti       0.00007046       2.93153458      34.53777351  F      -0.00008490       0.13426529      -0.97864914
Ti       4.40547899       5.02315386       8.55219818  F      -0.00585135      -0.01023625       0.92794012
Ti       1.46657873       5.02316076       8.55219818  F       0.00577384      -0.00998742       0.92753839
Ti       4.40338269       1.31661447       9.16923245  F       0.00149911      -0.26255071       0.16519992
Ti       1.46869852       1.31660758       9.16927585  F      -0.00147816      -0.26195149       0.16512454
Ti       2.93603473       3.41110029      10.35230461  F       0.00106950       0.12215206      -0.25266225
Ti       0.00005285       3.41028719      10.35121958  F      -0.00119473       0.12327624      -0.24839424
Ti       2.93603473       6.22439721      10.76053591  F       0.00065937       0.15566697      -0.55473547
Ti       0.00002936       6.22472796      10.76105672  F      -0.00065952       0.15537102      -0.55634294
Ti       1.46804085       1.48964015      11.98201810  F      -0.00033941      -0.02194412      -0.01854694
Ti       4.40397576       1.48959191      11.98197469  F       0.00034791      -0.02142174      -0.01882323
Ti       1.46703087       4.44097173      12.58655283  F       0.00190492      -0.01343292       0.06785535
Ti       4.40502685       4.44098551      12.58655283  F      -0.00202767      -0.01336563       0.06785073
Ti       2.93600537       6.59739123      13.75009447  F      -0.00003431       0.03055737      -0.10467620
Ti       0.00001174       6.59830081      13.74918305  F       0.00001030       0.03386368      -0.10427986
Ti       2.93597601       2.51904301      14.25011921  F       0.00016123       0.02229621       0.03375034
Ti       0.00002349       2.51912570      14.25350450  F      -0.00011366       0.02087020       0.03440399
Ti       4.40369391       4.67667528      15.41617812  F      -0.00304932      -0.02018018      -0.01211602
Ti       1.46829335       4.67665461      15.41613472  F       0.00300503      -0.01975731      -0.01151724
Ti       4.40592527       0.73581736      16.01954102  F      -0.00035935      -0.00739710      -0.00414244
Ti       1.46606786       0.73585182      16.01945422  F       0.00033165      -0.00767640      -0.00385263
Ti       5.87199313       2.89180964      17.24449531  F       0.00004211      -0.03355871       0.00280693
Ti       2.93598776       2.88990092      17.23538106  F       0.00009015      -0.02990296       0.00282924
Ti       5.87196377       5.70578874      17.65407203  F       0.00012700       0.03895623       0.02224324
Ti       2.93601712       5.70285330      17.64968852  F      -0.00018336       0.03974204       0.02067528
Ti       1.46471143       0.91065530      18.83966147  F      -0.00028274      -0.00578982      -0.02613198
Ti       4.40724059       0.91064152      18.83970487  F       0.00041529      -0.00554990      -0.02565624
Ti       1.48050711       4.08958696      19.44870992  F      -0.00412127      -0.01630468       0.00897543
Ti       4.39146253       4.08958007      19.44866652  F       0.00412314      -0.01643920       0.00898662
Ti       2.93588793       2.11426215      20.88511464  F      -0.00013983       0.06576903      -0.01645125
Ti       0.00006459       2.12563871      20.85100133  F       0.00016592       0.07837118      -0.01763171
Ti       2.93600537       6.17474277      20.86328386  F      -0.00022529      -0.02889017       0.00464539
Ti       0.00000000       6.17918038      20.88216336  F       0.00020302      -0.02761658      -0.00400179
Ti       4.41200278       4.07355918      22.30198885  F       0.00726661      -0.00276933       0.00711483
Ti       1.46000209       4.07354539      22.30207565  F      -0.00736045      -0.00274209       0.00708213
Ti       4.46012969       0.95674724      22.90053422  F       0.00386201      -0.00319035       0.02478225
Ti       1.41181059       0.95671968      22.90062102  F      -0.00385801      -0.00320427       0.02455301
Ti       2.93601124       5.76870780      24.05483141  F       0.00007605      -0.01733398       0.00800205
Ti       5.87195790       5.67722676      24.03525749  F       0.00004541      -0.01711827       0.01935052
Ti       2.93606409       2.91520360      24.44995556  F       0.00004388       0.00385761       0.00498657
V        5.87192266       2.89050041      24.45095378  F       0.00007708      -0.00528649      -0.00987830
Ti       4.44014140       0.77601775      25.67438903  F       0.00706223       0.01560847       0.00132369
Ti       1.43188108       0.77605910      25.67443243  F      -0.00704033       0.01564308       0.00121558
Ti       4.40075203       4.64294527      26.24042693  F       0.00793730       0.01428278      -0.03383415
Ti       1.47127633       4.64287636      26.24029673  F      -0.00807788       0.01443444      -0.03297302
Ti       5.87197551       2.51576993      27.41772674  F       0.00030285      -0.02787986       0.00012168
Ti       2.93606409       2.52133073      27.45418371  F      -0.00024898      -0.03024205       0.01910796
Ti       5.87199313       6.57791120      27.91775148  F       0.00034953       0.01630420      -0.02325349
Ti       2.93607584       6.57750465      27.90047782  F      -0.00037764       0.01703263      -0.01338718
Ti       1.46612658       4.43953157      29.08220455  F       0.00414648      -0.03168788      -0.02039439
Ti       4.40592527       4.43955224      29.08220455  F      -0.00407935      -0.03195284      -0.01997032
Ti       1.46353116       1.47740914      29.69190402  F       0.00785882       0.01040955      -0.01876077
Ti       4.40856179       1.47741603      29.69190402  F      -0.00794445       0.01032797      -0.01791640
Ti       2.93602299       6.21826448      30.91299560  F      -0.00008249       0.01333826       0.03406528
Ti       0.00005285       6.21921540      30.91633749  F       0.00015307       0.01502269       0.03812019
Ti       2.93602299       3.40440252      31.31393550  F      -0.00007065       0.00905403      -0.06415653
Ti       0.00005872       3.40257648      31.32118349  F       0.00008665       0.01158995      -0.05846108
Ti       4.40167981       1.31455415      32.50408205  F       0.00426192      -0.05880183       0.69107326
Ti       1.47041901       1.31455415      32.50395185  F      -0.00427842      -0.05901697       0.69173989
Ti       4.40442203       5.01943977      33.11894626  F      -0.00426007       0.20318635       0.30166566
Ti       1.46767679       5.01947423      33.11903306  F       0.00427030       0.20283846       0.30135075
