52
Lattice="4.6568 0.0 0.0 0.0 7.770572 0.0 0.0 0.0 41.044546" Properties=species:S:1:pos:R:3:move_mask:L:1:forces:R:3 job_name=BondOrder-VacuumGB-CSL7-V-V-34-d-4.60 top_level=BondOrder-VacuumGB solute=V energy=-392.11966587 stress_kbar_3x3="_JSON [[-24.69795409, 0.07062622, -1.01089475], [0.07062624, -28.01572748, -0.45145195], [-1.01089476, -0.45145192, -20.6909476]]" pbc="T T T"
Ti       1.81694831       7.39335735       8.21678975  F       1.05677080      -0.12572634       0.85471250
Ti       4.62872415       5.59836299       8.87941290  F      -0.09690790      -0.07278825      -0.00050242
Ti       2.45642009       2.27308657       9.13138537  F      -0.59464407       0.29758078       0.65469151
Ti       4.56772473       0.62187888       9.59309547  F      -0.30711611      -0.37787067       0.23147577
Ti       2.35415210       5.00846779      10.34252783  F      -0.06242291       0.01686391      -0.40247049
Ti       0.02184505       3.33484976      10.52891112  F       0.01263440       0.28383434       0.06827067
Ti       2.30824071       0.01067677      11.16423965  F      -0.03667554       0.17357694      -0.48499493
Ti       0.02654842       6.10402519      11.60649463  F      -0.00761273      -0.01869007      -0.24535653
Ti       2.33762046       2.76497155      12.11811489  F       0.02147300      -0.08202959      -0.20942500
Ti       0.00149949       1.11677884      12.51082911  F      -0.03880802      -0.08544208       0.09387054
Ti       2.34399097       5.56972066      13.13466517  F       0.03639922       0.03515673      -0.04594376
Ti       0.00591879       3.87414300      13.46515585  F      -0.00035903       0.00530302      -0.02849332
Ti       2.33383449       0.56597738      14.09724186  F      -0.00361046      -0.00885897      -0.00636855
Ti       0.01533019       6.64275118      14.43171386  F       0.02338165       0.02306019      -0.02924803
Ti       2.32989949       3.32430510      15.05140442  F       0.02483078      -0.02397224      -0.02107812
Ti       0.00979791       1.67574716      15.44514475  F       0.00224086      -0.04627559      -0.01224319
Ti       2.35523248       6.10554046      15.96181349  F      -0.00284061       0.00106543      -0.00481026
Ti       4.63597479       4.42673169      16.39495659  F      -0.01406755       0.01929101       0.00301363
Ti       2.34716225       1.10552705      17.03352763  F      -0.00729972       0.01361894      -0.01362994
Ti       0.02539819       7.20195262      17.22676536  F       0.01386769       0.00287324       0.01967392
Ti       2.23349907       3.81985778      17.97562310  F      -0.00310915       0.00716990       0.03036255
Ti       0.12240864       2.17026637      18.43996005  F      -0.00016507       0.01170734      -0.00101936
Ti       2.29768840       6.61051108      18.69566757  F      -0.00614316      -0.01288595       0.01715028
Ti       4.16301156       4.83694018      19.33169385  F       0.00534251      -0.01643343       0.00645790
Ti       2.68966523       1.63856498      20.03942496  F       0.00351318       0.00267313      -0.00714185
Ti       0.37517509       7.64928114      20.06179424  F      -0.00339733      -0.00802820      -0.01057146
Ti       1.26734812       4.82494242      20.78980135  F      -0.00534450      -0.00879312      -0.00029407
Ti       3.11200905       6.64473268      21.43268207  F      -0.00743117      -0.00778070      -0.00831010
Ti       0.61264395       2.15000848      21.67061731  F       0.01056231       0.00559075       0.00003113
Ti       3.19951498       3.82445019      22.10158504  F       0.00597899      -0.00714549       0.00711694
Ti       0.72852842       7.25121028      22.93109532  F      -0.00777286       0.00676831      -0.01108508
Ti       3.04758688       1.13158178      23.12059798  F       0.00339356      -0.01353293       0.00613945
Ti       0.78531810       4.36997543      23.69756117  F       0.01326024       0.00329621      -0.00100087
Ti       3.04871848       6.04018994      24.12430131  F       0.00675603       0.00869110       0.00233978
V        0.74989847       1.69583409      24.62713805  F      -0.01149196      -0.01194456       0.01531663
Ti       3.08140456       3.26411424      25.04057976  F      -0.00712943      -0.01931872       0.00990036
Ti       0.72763431       6.64858688      25.63757268  F      -0.01449492      -0.02470657       0.00889425
Ti       3.07142969       0.58292500      25.93026134  F       0.00282792      -0.01439989      -0.02921932
Ti       0.74316474       3.85922350      26.59530612  F       0.00280935       0.02663713       0.04762400
Ti       3.05812522       5.56720300      26.93478556  F      -0.02243624      -0.00561587       0.00305837
Ti       0.75055508       1.13631406      27.51445768  F       0.08107749       0.02217169      -0.03982470
Ti       3.07275688       2.77104037      27.98330953  F      -0.01898800      -0.03354466       0.01177653
Ti       0.72248855       6.10196599      28.44957557  F       0.01885020      -0.05697116       0.09711955
Ti       3.10437190       0.01607731      28.88312911  F       0.01540495       0.00725112       0.22252499
Ti       0.73425628       3.33247974      29.53934931  F      -0.02308305       0.00797608       0.27611965
Ti       3.05605294       5.01765260      29.72741542  F       0.06261863       0.25084304       0.48016760
Ti       0.84248032       0.62470737      30.45324717  F      -0.18422596       0.14995441       0.08922155
Ti       2.94855537       2.27613264      30.95222572  F       0.37425992       0.18809929      -0.18294534
Ti       0.77837015       5.59896910      31.18519456  F      -0.07316089      -0.23831633       0.27109287
Ti       3.59510082       7.39308538      31.84137372  F      -1.26503920      -0.16000636      -0.17171921
Ti       0.37712629       2.79528455      32.55760105  F       0.32296477      -0.13801126      -1.27846791
Ti       2.70173100       4.56768986      32.55903760  F       0.70455910       0.04803499      -0.28195912
