52
Lattice="5.088765 0.0 0.0 0.0 5.495746 0.0 0.0 0.0 48.722931" Properties=species:S:1:pos:R:3:move_mask:L:1:forces:R:3 job_name=BondOrder-VacuumGB-C1-Al-Al-29-d-2.59 top_level=BondOrder-VacuumGB solute=Al energy=-391.08793839 stress_kbar_3x3="_JSON [[-35.43322088, -0.1092059, -0.75947276], [-0.10920592, -24.78005721, -1.24836355], [-0.75947276, -1.24836352, -23.73230765]]" pbc="T T T"
Ti       2.61827646       0.79482776       8.00839328  F       0.09996747      -0.02386092       1.69369807
Ti       0.02302157       1.60573607       9.38062591  F      -0.05625570      -0.57886960       0.37129617
Ti       0.80379079       4.35325735       9.37682552  F      -0.05423309       0.57641817       0.03436949
Ti       2.56826407       2.36080761      10.59294987  F      -0.21827579      -0.31961684      -0.65236561
Ti       3.36654882       5.10883999      10.59801706  F       0.23769711       0.38885765      -0.50334502
Ti       0.81047234       0.38994516      11.83660269  F      -0.05236905      -0.03611252      -0.24663805
Ti       0.03491402       3.13681794      11.84444708  F       0.02560414      -0.01493462      -0.39163591
Ti       3.36314443       1.18776261      13.08429951  F      -0.05528411      -0.03553311       0.01906776
Ti       2.56134335       3.93590490      13.08727160  F       0.07242713       0.02477175       0.01441064
Ti       0.00940913       4.71272310      14.32746509  F      -0.03799871       0.04029879       0.04065735
Ti       0.83467450       1.96190988      14.33389652  F       0.02882222      -0.00691393       0.01270835
Ti       3.37257900       2.74325657      15.56970494  F      -0.00628859       0.02000489      -0.01534621
Ti       2.56215247       5.49267388      15.58154461  F       0.00007668       0.01503453      -0.02156158
Ti       0.81555601       3.54796019      16.82237149  F       0.00110879      -0.00827418       0.01147993
Ti       0.01351067       0.80460469      16.83133651  F       0.01908548      -0.00757808       0.01438287
Ti       2.55693648       1.60089982      18.06967853  F      -0.00065001       0.01105781       0.00669490
Ti       3.37617676       4.33934761      18.08103097  F      -0.00437280      -0.00554508       0.01009444
Ti       0.83744788       5.11221987      19.30665630  F       0.00121992       0.00513393      -0.00745514
Ti       0.02634963       2.37074392      19.32824056  F      -0.00173009       0.00797060      -0.00521317
Ti       3.34953708       0.41650061      20.54158771  F       0.00044342       0.00118552       0.00458945
Ti       2.57501687       3.17266119      20.57423207  F       0.01006321      -0.00187464      -0.00051750
Ti       0.04127497       3.97037422      21.80034463  F      -0.00188330       0.00811806      -0.00591534
Ti       0.81309814       1.20354090      21.82475482  F      -0.00349167       0.00501479      -0.01278298
Ti       2.57981048       4.77994157      23.04565403  F       0.00573350       0.00276160      -0.02691160
Ti       3.42489151       2.01348745      23.00302146  F      -0.00161938       0.00717690       0.00188647
Ti       0.81580536       2.71626696      24.32984432  F       0.00886687      -0.00178010       0.01015988
Ti       0.08975055       0.01126628      24.43274715  F      -0.00662582      -0.00349957       0.00302554
Ti       3.35439176       1.83129248      25.72098144  F       0.00513840       0.00684139      -0.00236372
Ti       2.59189121       4.59362479      25.75537983  F       0.01448208      -0.01365192       0.02685001
Al       0.05771168       3.87535827      26.88385164  F      -0.01517927      -0.00351809       0.00011166
Ti       0.89442678       1.13600367      26.97374545  F       0.00055223      -0.00092144       0.00982987
Ti       3.44373012       0.34083518      28.16156178  F       0.00996809       0.01151357      -0.01302271
Ti       2.62631671       3.13252026      28.15693310  F      -0.00281126      -0.01103713      -0.00106407
Ti       0.82290928       5.06457725      29.38280205  F      -0.00013390       0.01148718      -0.00622622
Ti       0.00695634       2.32681642      29.38640754  F      -0.00189014      -0.02452980      -0.00394932
Ti       2.53237810       1.55117980      30.61768473  F       0.00748944      -0.00229455       0.00221830
Ti       3.35791318       4.29321083      30.68560450  F      -0.00634542      -0.00428069       0.00514528
Ti       0.01293564       0.77853287      31.87001023  F       0.00344203       0.00845433      -0.00049861
Ti       0.82425271       3.52544961      31.89378702  F      -0.00926266      -0.02227501       0.01583866
Ti       3.35370986       2.72550531      33.13588070  F      -0.00479261       0.01465014       0.01796961
Ti       2.54355812       5.48751887      33.14543039  F       0.00422099      -0.00452190       0.00530682
Ti       0.80696618       1.95058314      34.38679323  F       0.04001593       0.04629160      -0.05088874
Ti       5.07636877       4.70442452      34.38133626  F      -0.03313750      -0.03145464      -0.03516523
Ti       2.54573611       3.92600157      35.62684055  F       0.06086063      -0.04259006      -0.02688382
Ti       3.35176087       1.17688103      35.63707236  F      -0.06837414       0.02354783      -0.02525326
Ti       0.79584722       0.38566398      36.87073697  F      -0.02679439      -0.02203774       0.38186685
Ti       0.01769364       3.13578474      36.87975072  F       0.04014164      -0.03833845       0.24107759
Ti       2.55218358       2.35814767      38.12194184  F      -0.24270108       0.39399072       0.50812710
Ti       3.34604109       5.10625149      38.12242907  F       0.21701249      -0.33146411       0.65386828
Ti       0.80653872       4.35101508      39.33860215  F       0.05294014      -0.59452620      -0.36109480
Ti       0.02393246       1.60123506      39.34040490  F       0.05344848       0.58768199      -0.02961454
Ti       3.30704080       3.54194784      40.70674205  F      -0.10832801      -0.02642885      -1.67101819
