64
Lattice="5.872 0.0 0.0 0.0 6.890708 0.0 0.0 0.0 43.394398" Properties=species:S:1:pos:R:3:move_mask:L:1:forces:R:3 job_name=BondOrder-VacuumGB-T1g-Al-Al-43-d-4.72 top_level=BondOrder-VacuumGB solute=Al energy=-482.16279439 stress_kbar_3x3="_JSON [[-17.68092484, 0.00031487, 0.0003881], [0.00031485, -28.14997455, -0.77703006], [0.00038811, -0.77703008, -16.54598426]]" pbc="T T T"
Ti       4.41227365       5.22119970      34.64699865  F      -0.00581749      -0.27381666      -0.42486360
Ti       1.45967938       5.22117214      34.64704204  F       0.00581416      -0.27376097      -0.42500409
Ti       5.87195890       3.19422215       8.54952090  F       0.00004322       0.16585094       0.94640951
Ti       2.93602349       3.19491122       8.54413999  F      -0.00017694       0.15647447       0.94809262
Ti       0.00002936       6.63668205       9.16962685  F      -0.00020492      -0.21353295       0.11501109
Ti       2.93594715       6.63412560       9.16272714  F       0.00017098      -0.20521841       0.13010266
Ti       4.39857427       1.76907903      10.45358030  F       0.01461182       0.03618654      -0.51713189
Ti       1.47334939       1.76909970      10.45358030  F      -0.01451396       0.03623684      -0.51726962
Ti       1.46849912       4.59724609      10.67020513  F       0.00091144       0.11705900      -0.36784894
Ti       4.40345978       4.59725298      10.67024852  F      -0.00095224       0.11714314      -0.36801867
Ti       5.87198238       6.72564798      11.98436108  F      -0.00005861      -0.09560980       0.00550525
Ti       2.93594128       6.72496580      11.98145365  F       0.00007446      -0.09603674       0.01116516
Ti       2.93598238       2.87649160      12.58975633  F      -0.00001565      -0.06207737       0.10545859
Ti       5.87196477       2.87729781      12.59123173  F      -0.00004410      -0.06207680       0.09541262
Ti       4.40560893       5.00660238      13.75059987  F      -0.00223301       0.06409300      -0.09129400
Ti       1.46632061       5.00659549      13.75059987  F       0.00223617       0.06399269      -0.09142568
Ti       4.40527422       0.93429732      14.22520440  F       0.00175521       0.01594218       0.03561155
Ti       1.46670229       0.93427664      14.22520440  F      -0.00187832       0.01607651       0.03558377
Ti       2.93598238       3.09472032      15.40653009  F      -0.00001362      -0.02559254      -0.02651588
Ti       5.87197651       3.09722854      15.40974128  F       0.00003823      -0.03106749      -0.02203199
Ti       2.93597651       6.02740565      15.99934097  F       0.00010542       0.00254492      -0.04217878
Ti       0.00000000       6.02534533      16.01591763  F      -0.00012200       0.00671692      -0.03807250
Ti       4.40240282       1.29830586      17.18891160  F       0.00182014       0.00197079       0.00456088
Ti       1.46960893       1.29828518      17.18886820  F      -0.00181190       0.00212061       0.00484618
Ti       4.40647211       4.11734273      17.66594621  F       0.00030820       0.01030652       0.03556535
Ti       1.46553376       4.11735652      17.66594621  F      -0.00032985       0.01016346       0.03558807
Ti       2.93602349       6.25309701      18.81589776  F      -0.00003743       0.00682309      -0.00067323
Ti       0.00002349       6.25038207      18.84501540  F       0.00004181       0.01106672      -0.00049121
Ti       2.93605872       2.39204727      19.43938847  F      -0.00016467      -0.00086719      -0.00492618
Ti       0.00001174       2.39274323      19.42298539  F       0.00005586      -0.01118142      -0.00721444
Ti       1.48539286       4.51550162      20.72251743  F      -0.00220420      -0.01342595      -0.01150497
Ti       4.38669522       4.51549473      20.72251743  F       0.00210706      -0.01332024      -0.01141981
Ti       4.36428179       0.47207551      20.97212200  F       0.01040938       0.01161059       0.00583342
Ti       1.50779454       0.47210997      20.97212200  F      -0.01045273       0.01157116       0.00566099
Ti       0.00005285       2.48498224      22.26540525  F      -0.00007186       0.00887782      -0.00761067
Ti       2.93609982       2.51175265      22.28284980  F      -0.00012150       0.01401715       0.01074315
Ti       0.00009982       5.88386531      22.78939260  F      -0.00011195      -0.01622130      -0.01632885
Ti       2.93596477       5.89175517      22.87652855  F       0.00003878      -0.02204468      -0.00301197
Ti       4.42231477       3.90913310      24.17540968  F       0.00506175      -0.00609296       0.01063337
Ti       1.44974982       3.90911932      24.17540968  F      -0.00486488      -0.00603164       0.01081366
Ti       4.39232059       1.02109956      24.35280597  F       0.00419830      -0.00183414      -0.00975767
Ti       1.47976749       1.02109956      24.35280597  F      -0.00407639      -0.00190017      -0.00975482
Ti       0.00005872       5.79872372      25.63298411  F       0.00015106      -0.00384060      -0.00654429
Al       2.93612918       5.80952835      25.68822518  F       0.00029836      -0.00454605       0.01036173
Ti       2.93605872       2.83808279      26.30104087  F      -0.00002711      -0.00110656      -0.01026379
Ti       0.00003523       2.73119413      26.27760789  F       0.00002592      -0.00268291       0.00212799
Ti       4.37510389       0.63932678      27.44005703  F      -0.00572449      -0.01608592       0.00008847
Ti       1.49698419       0.63931989      27.44005703  F       0.00573587      -0.01603031      -0.00002309
Ti       1.48214565       4.74685025      27.91557284  F      -0.00942967       0.00103811      -0.00372896
Ti       4.38993656       4.74685025      27.91557284  F       0.00947938       0.00108797      -0.00358264
Ti       2.93602349       2.59504752      29.09234212  F      -0.00007901      -0.04395367      -0.04096586
Ti       0.00001174       2.58957630      29.08279536  F       0.00005590      -0.02633092      -0.01766992
Ti       2.93601762       6.56301349      29.73670554  F      -0.00002856       0.03935966       0.01106576
Ti       0.00001762       6.54963174      29.69469976  F       0.00002574       0.01584696       0.02463672
Ti       4.40966648       4.37895535      30.87038419  F       0.00845822       0.00741383       0.01960376
Ti       1.46231590       4.37895535      30.87034079  F      -0.00841632       0.00737381       0.01992702
Ti       4.40404110       1.57463014      31.35883153  F       0.01527900       0.02334633      -0.00992143
Ti       1.46795890       1.57463703      31.35887493  F      -0.01523439       0.02329928      -0.01006137
Ti       2.93597064       6.32915664      32.52618423  F      -0.00008220      -0.09169488       0.76360349
Ti       5.87199413       6.32646927      32.50270786  F       0.00004768      -0.08754089       0.73353750
Ti       5.87198238       3.28940350      33.12632876  F       0.00003993       0.28515814       0.24000567
Ti       2.93600587       3.28748788      33.12034033  F      -0.00008203       0.28409893       0.24040890
Ti       1.46531650       1.15779743      34.43939985  F      -0.00727943       0.07532395      -0.75042832
Ti       4.40666589       1.15780432      34.43944324  F       0.00726196       0.07533011      -0.75042575
