64
Lattice="5.088765 0.0 0.0 0.0 9.739025 0.0 0.0 0.0 38.303587" Properties=species:S:1:pos:R:3:move_mask:L:1:forces:R:3 job_name=BondOrder-VacuumGB-T2-Al-Al-36-d-1.39 top_level=BondOrder-VacuumGB solute=Al energy=-477.48694832 stress_kbar_3x3="_JSON [[-18.57075344, 1.26921965, 1.33777197], [1.26921962, -19.26953269, 1.88755126], [1.337772, 1.88755127, -21.05590979]]" pbc="T T T"
Ti       2.55838678       9.27098694       8.35998768  F       0.85014951       0.01366999       0.91550367
Ti       0.02707732       4.39993567       8.35117786  F       0.83779405       0.04132560       0.91886862
Ti       1.29312643       1.90459295       8.95189301  F      -0.84654363      -0.41100950       0.62254026
Ti       3.84138657       6.77007349       8.95522543  F      -0.83850725      -0.41259549       0.61674344
Ti       2.71027624       4.10937186       9.72076092  F      -0.14933943      -0.13336261       0.12896468
Ti       0.15958876       8.97935183       9.73734637  F      -0.13851185      -0.13596320       0.10288308
Ti       1.02948769       6.22354862      10.48549203  F       0.07436418       0.22712199      -0.69530142
Ti       3.56911220       1.35128972      10.48001462  F       0.07296539       0.24653098      -0.68314254
Ti       0.23025644       3.49491729      11.10003478  F       0.06313904       0.26924174      -0.45374373
Ti       2.77475089       8.36082636      11.10432478  F       0.05424960       0.26781342      -0.46155054
Ti       1.10396686       0.85732637      11.86350188  F      -0.05686537       0.02730323      -0.18100373
Ti       3.64676675       5.72386847      11.86036098  F      -0.05481194       0.03491199      -0.20323913
Ti       2.75625323       3.09733134      12.52940974  F       0.02409500      -0.09322604      -0.04581879
Ti       0.21256789       7.96787617      12.54212653  F       0.02022542      -0.09511142      -0.04317831
Ti       3.58943164       0.40024471      13.19922456  F       0.00750787       0.04243175      -0.01724982
Ti       1.04638748       5.27226014      13.20738323  F      -0.00006263       0.05734875      -0.02100006
Ti       2.72689106       7.48708973      13.93093798  F      -0.01375683      -0.03314818       0.02359197
Ti       0.18178595       2.62307978      13.93124441  F      -0.02160163      -0.03704134       0.03152941
Ti       3.59857615       4.83752954      14.66552418  F      -0.00031765       0.01700834      -0.02901319
Ti       1.05205128       9.70725630      14.68142016  F       0.01650279       0.01656085      -0.03318646
Ti       0.16617871       7.05298243      15.28971943  F       0.00974221      -0.01575761      -0.00465727
Ti       2.70901423       2.17715904      15.26922701  F       0.01998574      -0.01996566       0.00884632
Ti       1.07473190       4.45857434      15.99726329  F      -0.00168546      -0.00154855      -0.00741195
Ti       3.62166896       9.31020599      15.98558069  F       0.00856931       0.02000744      -0.00369872
Ti       0.23361502       1.77812197      16.73138984  F       0.01127898      -0.01327485       0.00518462
Ti       2.78467907       6.63955108      16.72752118  F      -0.00500855      -0.00442357      -0.00807200
Ti       0.92783452       8.70632801      17.41074226  F       0.01236227       0.02270850      -0.00601325
Ti       3.48996155       3.83617273      17.36680804  F      -0.01191972       0.01510592       0.00550257
Ti       2.58749961       1.02283136      18.12640648  F      -0.00518690      -0.01778008       0.03022261
Ti       0.00845244       5.89620052      18.20956356  F       0.00811292      -0.00033695      -0.01569452
Ti       3.80676261       8.18013822      18.94617984  F      -0.00042116      -0.01532144      -0.01647278
Ti       1.30399603       3.31278779      18.91802671  F      -0.00166275      -0.01420680       0.01431065
Ti       5.07209421       0.94125729      19.44389665  F      -0.00319979      -0.02368007       0.01110263
Ti       2.53904439       5.77604043      19.43589120  F       0.00416907      -0.00124505       0.01397970
Ti       3.92484740       3.56735616      20.09919442  F      -0.00230380      -0.00862151      -0.00221290
Ti       1.27639966       8.39685101      20.15707114  F       0.00732215      -0.00501869      -0.00858365
Al       2.35426115       1.37106968      20.87380786  F       0.00608101      -0.00403881      -0.00853498
Ti       4.87924019       6.22804805      20.97236299  F      -0.01286896      -0.02083425      -0.02738078
Ti       1.56099393       4.04738297      21.59908628  F      -0.00007842       0.00297304       0.00566221
Ti       3.97122132       8.91883353      21.65883988  F      -0.00028571       0.00869292      -0.02191761
Ti       4.88091948       1.86582189      22.23278082  F      -0.00557258      -0.00399905       0.00210153
Ti       2.36232684       6.75391645      22.25832932  F       0.00170911      -0.00043547      -0.00831358
Ti       1.39291202       9.34392249      22.93208941  F       0.03693402       0.01399233       0.00935034
Ti       4.01761050       4.48026315      23.02175811  F       0.01172800       0.01383259       0.00216636
Ti       4.90116768       7.10528099      23.70275758  F      -0.01415166       0.02599279       0.02927721
Ti       2.38312463       2.21128458      23.63553479  F      -0.01070204       0.02674230       0.05004698
Ti       1.52560666       4.89476579      24.34541516  F      -0.03961389      -0.00139209       0.02993626
Ti       4.07360727       0.02039352      24.37789661  F      -0.04228550      -0.01370500       0.01210930
Ti       2.35814897       7.56801129      25.05330376  F       0.02268056      -0.00258530       0.01545253
Ti       4.91711587       2.67641068      25.05801510  F       0.02754862       0.00307025       0.01513959
Ti       4.04545622       5.32427627      25.81129344  F       0.06166491      -0.00294444       0.17587006
Ti       1.49921123       0.46501897      25.79447816  F       0.06537571      -0.00112122       0.15399863
Ti       4.90877538       7.98652641      26.48175943  F      -0.12439382       0.00918153       0.18957836
Ti       2.36839774       3.11755929      26.44778414  F      -0.11342216       0.01040640       0.16769396
Ti       1.46479083       5.74851794      27.13177130  F       0.09270176       0.10857954       0.43873947
Ti       4.00301083       0.87586947      27.14808863  F       0.10951293       0.12685148       0.47868996
Ti       2.35379298       8.36186843      27.88183214  F       0.14046181       0.32110270       0.37106532
Ti       4.90266378       3.48009450      27.87696758  F       0.14013098       0.34952642       0.35751452
Ti       1.54241485       1.33739213      28.52425990  F      -0.24879698       0.15810784       0.16711813
Ti       4.09079203       6.19964906      28.53406562  F      -0.24684562       0.17103371       0.18972030
Ti       4.92430629       8.94168128      29.25919082  F      -0.74144936      -0.59771559      -0.55267442
Ti       2.38652392       4.07137992      29.23670662  F      -0.73690845      -0.60266774      -0.55499606
Ti       3.83935106       1.88667314      30.04713391  F       0.83253240       0.04243954      -1.10507400
Ti       1.30167555       6.75741276      30.04552516  F       0.83748417       0.03246173      -1.09186907
