100
Lattice="4.4265 -2.555641 0.0 3.767997 6.526363 -0.031456 0.0 0.0 61.781652" Properties=species:S:1:pos:R:3:move_mask:L:1:forces:R:3 job_name=BondOrder-VacuumGB-CSL13-Al-Al-63-d-5.77 top_level=BondOrder-VacuumGB solute=Al energy=-758.04625057 stress_kbar_3x3="_JSON [[-34.90058619, -1.99757621, -0.39589766], [-1.9975762, -37.73671743, -0.1746458], [-0.39589772, -0.17464578, -23.4845261]]" pbc="T T T"
Ti       2.40048204      -1.00096798       8.11035401  F       0.17445021      -0.00518070       1.75294226
Ti       5.69256204       1.45015356       8.09777364  F      -0.07735335       0.13909312       1.74410355
Ti       4.96958901      -0.95142622       9.41625220  F       0.44536624      -0.03647741       0.04989223
Ti       4.46208890       3.69515042       9.40403612  F      -0.24170331       0.36283571       0.03760047
Ti       7.01807372       3.73041799      10.54826893  F      -0.14552191      -0.07487369      -1.15106056
Ti       3.73153721       1.27180592      10.56247114  F       0.01895603      -0.17094758      -1.15493383
Ti       1.60982915      -0.57489717      10.96996593  F       0.24789015      -0.14066471      -0.24662252
Ti       2.04619230       3.51936061      10.94782969  F      -0.23984691       0.14802887      -0.22819538
Ti       4.74447892       3.45417898      12.19870196  F      -0.03570902      -0.11691479      -0.27157168
Ti       4.64761208      -0.84078607      12.21912531  F      -0.08696125      -0.09061012      -0.27590202
Ti       3.33973432       5.66157186      13.14873684  F      -0.07931502       0.03810239       0.07108994
Ti       2.84596987       1.61067066      13.16867380  F       0.07168075      -0.05531212       0.07028648
Ti       2.28782433      -1.10867350      13.84110314  F       0.01855878      -0.03918361       0.03794206
Ti       5.69537943       1.27313311      13.82754382  F      -0.03984602      -0.00497560       0.04098387
Ti       4.10633836       3.59885109      14.94867077  F      -0.01010348       0.02087919      -0.03429646
Ti       5.12287701      -1.34074021      14.96520838  F       0.01880749       0.00681736      -0.03781157
Ti       6.82176125       3.35266330      15.76299463  F      -0.00398638      -0.00803795      -0.03707116
Ti       3.54121202       0.87792462      15.77372108  F      -0.00548749      -0.00591819      -0.03703589
Ti       6.26497439       0.67892410      16.67571047  F      -0.00460535      -0.00616224      -0.01007883
Ti       5.28546716       5.58725873      16.66890828  F      -0.00387079      -0.00013218      -0.00845239
Ti       4.72953650       2.91955156      17.63281751  F      -0.00154805      -0.00189665       0.01478796
Ti       4.24957201      -1.13911691      17.64941754  F      -0.00510648      -0.00367374       0.01531969
Ti       3.03753002       5.20241808      18.42996060  F      -0.00363470      -0.00546221       0.00571937
Ti       2.63696500       1.08841463      18.44381476  F      -0.00503546      -0.00509003       0.00548637
Ti       5.83703006       4.97980899      19.51611014  F      -0.00451006      -0.01131673       0.00363699
Ti       5.48844065       0.82433711      19.53630746  F      -0.00912000      -0.00429149       0.00131093
Ti       0.50277129       0.67007480      20.26128100  F       0.00019385      -0.00044329      -0.00584463
Ti       3.77323828       3.14956414      20.25272077  F      -0.00637594       0.00031463      -0.00456124
Ti       3.14092769       0.52806948      21.17498153  F      -0.00462147       0.00129435       0.00295047
Ti       6.74655725       2.79637052      21.16135735  F      -0.00053357       0.00015631       0.00344514
Ti       5.04423891       5.24409448      22.40108580  F      -0.00740381       0.00093627       0.00824527
Ti       1.70249837       2.81941680      22.41385957  F       0.00138080       0.00177216       0.00646113
Ti       4.49535679       2.47624977      22.84056896  F      -0.00268625      -0.00498600       0.00175254
Ti       4.00923915      -1.58675872      22.85299636  F      -0.00618708       0.00050560       0.00169420
Ti       7.04905204       2.49635799      23.95180816  F      -0.00531775       0.00376226       0.00609282
Ti       2.75209029       0.62809407      23.97414031  F       0.00152266       0.00094741       0.00308850
Ti       5.80394378       4.73923173      25.28603417  F       0.00038325       0.00395528       0.00247705
Ti       5.31667304       0.66773468      25.30040989  F      -0.00097597       0.00660410       0.00514619
Ti       3.65080334       2.88388324      25.46064721  F       0.00051567       0.00446540      -0.00286202
Ti       0.35895813       0.43045939      25.47434749  F       0.00042635       0.00831010       0.00053740
Ti       2.85304821       0.53438089      26.76723151  F      -0.00030413       0.00106363       0.00276391
Ti       6.91545269       2.53644797      26.74929170  F       0.00151611       0.00124372       0.00375604
Ti       4.97574533       5.20002351      28.16017941  F       0.00327227       0.00335543      -0.00000244
Ti       1.70281206       2.74472203      28.17761568  F       0.00143516       0.00286481      -0.00229074
Ti       4.45027222       2.40548035      28.12874869  F       0.00320199      -0.00192374      -0.00345742
Ti       3.96965669      -1.66743129      28.13094465  F       0.00123426       0.00193533      -0.00208398
Ti       6.87596961       2.55039380      29.54358425  F       0.00102110       0.00481421      -0.00154850
Ti       2.88194220       0.51737696      29.55790990  F       0.00134932       0.00249343       0.00030380
Ti       3.63075522       2.91330546      30.76354901  F       0.00137368      -0.00236205       0.00240808
Ti       0.35241566       0.42985097      30.74952792  F      -0.00563274       0.00327131       0.00336460
Ti       5.78075644       4.74169817      31.05456471  F      -0.00289363       0.00084392       0.00355742
Ti       5.32513484       0.67392667      31.02542841  F      -0.00085354      -0.00468023       0.00853894
Ti       2.63095065       0.68422429      32.35894892  F       0.00315267       0.00409388       0.00257546
Ti       7.08797269       2.47314749      32.39371754  F       0.00100420       0.00056208      -0.00610834
Ti       4.04234862      -1.46840317      33.29137446  F       0.00064777       0.00272732       0.00115582
Ti       4.46018857       2.50234086      33.36214872  F      -0.00051662       0.00268555      -0.00206448
Ti       1.67730979       2.86065661      33.95605842  F       0.00833777       0.00705840       0.00632455
Ti       5.12729988       5.23752505      33.91512090  F      -0.00364201       0.00209395      -0.00161831
Ti       3.23567637       0.61960904      35.14087491  F      -0.00300256       0.00645589       0.00252036
Ti       6.47590326       2.97433501      35.13091357  F       0.00814003      -0.00083615       0.00072218
Ti       4.81464973      -1.76976295      35.91317423  F      -0.00615920       0.01060894       0.00124806
Ti       3.75345146       3.46522099      35.87335884  F      -0.00113993      -0.00408090       0.00426553
Ti       5.53413424       0.93829880      36.79376325  F       0.00320590       0.00380051      -0.00246138
Al       5.80482027       5.15058270      36.80762662  F      -0.00682457       0.00050811      -0.00215481
Ti       7.47747206       2.92565417      37.77572520  F      -0.00290368       0.00470730       0.00181091
Ti       2.47489237       1.25610938      37.78540505  F      -0.00245426      -0.00714628       0.00459750
Ti       4.66672341       3.09317489      38.51037999  F       0.00029046      -0.00448263       0.00842857
Ti       4.24708173      -0.85775039      38.53882097  F      -0.00279458       0.00439431      -0.00429842
Ti       6.31625260       0.84197684      39.63597965  F       0.00365088      -0.00521500       0.00087160
Ti       1.56543560      -0.79628502      39.67430548  F      -0.00096696      -0.00613827      -0.00819302
Ti       3.58222728       1.11923219      40.34462360  F       0.00244480      -0.00400290       0.00669281
Ti       6.82099896       3.50789133      40.40830993  F       0.00100845      -0.00919390      -0.00175381
Ti       4.20930965       3.70666692      41.26933580  F       0.00125183      -0.01205701       0.01051150
Ti       5.01758014      -1.12360148      41.25403356  F      -0.00059223      -0.01149747      -0.00022454
Ti       2.32718852      -1.03709883      42.52017580  F       0.00453091       0.00556091      -0.00715397
Ti       5.67212532       1.36373530      42.53194708  F      -0.00426690       0.00306899       0.00059049
Ti       3.36462951       5.79307588      42.96366408  F      -0.00321088      -0.00152167       0.00159748
Ti       2.85456287       1.71349890      42.96026169  F       0.00413276       0.00453311      -0.00055536
Ti       4.62928241       3.55878428      44.05497569  F       0.00983266       0.01674720       0.01654406
Ti       4.74526783      -0.84777613      44.08048608  F       0.00510424       0.00760253       0.00357266
Ti       2.05408609       3.52467099      45.37753483  F       0.00185767      -0.00294252      -0.00217383
Ti       1.57795266      -0.54828746      45.39244862  F       0.00371295       0.00235355      -0.00015984
Ti       7.01049549       3.75228394      45.58439521  F      -0.01267432       0.00618045      -0.01577099
Ti       3.71917679       1.30768431      45.59262570  F       0.01935193      -0.00918086      -0.02180953
Ti       4.50277477       3.66976342      46.85410341  F       0.01030974       0.00502310      -0.02611859
Ti       4.89949217      -0.91114723      46.87440671  F       0.00159907       0.01537535      -0.03789251
Ti       5.68602707       1.44914923      48.21558307  F       0.02544244      -0.06007355      -0.03887281
Ti       2.38419384      -0.99474015      48.22784875  F      -0.06159360      -0.00935134      -0.04219592
Ti       3.38811658       5.86515019      48.27101624  F       0.06386803      -0.04758553       0.03140848
Ti       2.93190713       1.78080175      48.28673279  F      -0.07104102       0.02899092       0.02341576
Ti       4.54188884       3.65593493      49.62677053  F       0.00146047       0.06327260       0.32748016
Ti       4.86927236      -0.88398859      49.64422841  F       0.06317943       0.02846226       0.33126450
Ti       2.06009134       3.54696124      51.04238673  F       0.16777321       0.00571312       0.64938078
Ti       1.59404068      -0.53555158      51.05824075  F      -0.08826569       0.15130757       0.65168913
Ti       7.03430876       3.76569371      50.98067721  F       0.45241856      -0.07220647       0.21617715
Ti       3.72331795       1.32702185      50.99621757  F      -0.28364413       0.35457144       0.22149503
Ti       4.57683203       3.63815347      52.39587730  F       0.17594018      -0.32694880       0.01261318
Ti       4.84730448      -0.86926920      52.41228619  F      -0.37459643      -0.00229563       0.00715936
Ti       3.40506591       5.85717447      53.67721316  F       0.06211405      -0.11887822      -1.36309545
Ti       2.93667604       1.77984099      53.69521569  F      -0.14295873      -0.00197347      -1.36343959
