64
Lattice="5.088765 0.0 0.0 0.0 9.739025 0.0 0.0 0.0 38.303587" Properties=species:S:1:pos:R:3:move_mask:L:1:forces:R:3 job_name=BondOrder-VacuumGB-T2-Al-Al-44-d-4.19 top_level=BondOrder-VacuumGB solute=Al energy=-477.53251157 stress_kbar_3x3="_JSON [[-18.5477265, 0.02326487, 0.37784763], [0.02326491, -19.76322803, -0.4648159], [0.37784765, -0.46481587, -20.87612417]]" pbc="T T T"
Ti       2.55704844       9.25383651      29.94168414  F      -0.87030781       0.02879668      -0.97370913
Ti       0.00961777       4.38794693      29.93735583  F      -0.85456938       0.03633603      -0.93684708
Ti       1.28241458       1.88148224       8.26901667  F      -0.85705612       0.03957159       1.04024788
Ti       3.82936691       6.75264063       8.26016854  F      -0.86780966       0.02852731       1.04530238
Ti       2.72217886       4.07688247       9.04826484  F       0.76216062      -0.57921824       0.55567008
Ti       0.16938463       8.95144953       9.03336474  F       0.77455680      -0.61460872       0.59122244
Ti       1.03859658       6.22051005       9.76615067  F       0.24649203       0.13939048      -0.12380114
Ti       3.58703992       1.34619621       9.77373478  F       0.25095722       0.15456916      -0.14196701
Ti       0.22388022       3.50278643      10.41129798  F      -0.12184819       0.29498511      -0.36499743
Ti       2.76830852       8.36630943      10.40846352  F      -0.12418480       0.31283119      -0.37502203
Ti       1.10996651       0.87093179      11.15201275  F      -0.11050373       0.14861489      -0.46104508
Ti       3.65323966       5.74373608      11.15630275  F      -0.10099862       0.12355734      -0.46393530
Ti       2.76040566       3.10766444      11.84094106  F       0.11468859      -0.00526810      -0.17877942
Ti       0.21344316       7.97736198      11.84013669  F       0.12333516      -0.00784443      -0.17491429
Ti       3.61286540       0.43336713      12.50255892  F      -0.06265734      -0.00340253      -0.14796397
Ti       1.06930219       5.30611299      12.50340160  F      -0.05765404      -0.00486015      -0.14492850
Ti       2.75056908       7.52051406      13.23572788  F      -0.00648508      -0.00325288      -0.01831123
Ti       0.20670563       2.65580290      13.23040368  F      -0.00489461      -0.00818699      -0.02680357
Ti       3.61475842       4.87215178      13.95300085  F       0.04092351      -0.02088353      -0.00691923
Ti       1.06740408       0.00292171      13.94549335  F       0.04182448      -0.01812797      -0.00336318
Ti       0.21312257       7.06637359      14.62427121  F       0.01543169       0.02555773      -0.04984349
Ti       2.75397346       2.19984123      14.61465701  F       0.01230997       0.02643006      -0.03899697
Ti       1.11738084       4.44542666      15.30354702  F      -0.01333080      -0.00150507      -0.01185044
Ti       3.65552960       9.30744985      15.29535006  F      -0.01299009       0.00584074      -0.00380484
Ti       0.22733549       1.81763319      16.03905250  F      -0.00249157       0.01644648      -0.00131956
Ti       2.77958013       6.67975377      16.06276242  F      -0.00936436       0.01822683      -0.01495142
Ti       1.02949787       8.84151541      16.67255553  F      -0.00744609      -0.00468002       0.01166787
Ti       3.59637780       3.96147503      16.67983321  F      -0.02094705      -0.00595844       0.01630543
Ti       2.71052050       1.22600690      17.41342351  F       0.01711728       0.01348463       0.02717037
Ti       0.18822324       6.10155760      17.43992959  F       0.00625631       0.01359911       0.00916245
Ti       3.83493401       8.29263370      18.20255401  F      -0.00342444      -0.01168254       0.01337095
Ti       1.29251069       3.43527551      18.18420659  F      -0.01171245      -0.01978613       0.01485137
Ti       5.08805766       0.93257008      18.80809541  F      -0.00712266      -0.01646819      -0.00826464
Ti       2.58616635       5.78480555      18.82946882  F      -0.00177952      -0.01084937      -0.00642376
Ti       3.83756491       3.42753298      19.42133584  F      -0.00205564      -0.02366385      -0.02738530
Ti       1.28151387       8.30314211      19.37766975  F      -0.00798728      -0.01468782      -0.01794277
Ti       2.37417349       1.20940186      20.20261411  F      -0.02337203      -0.02185205      -0.00701491
Ti       4.94846775       6.11304965      20.23915573  F      -0.03019978      -0.01277098      -0.00335068
Ti       1.53408963       3.94528877      20.91391172  F       0.01195696       0.03096969       0.00183223
Ti       4.07832456       8.83174717      20.92245342  F       0.02293270       0.00504676      -0.01232383
Ti       4.84717588       1.82923237      21.58146663  F       0.00881201      -0.00280543       0.02196206
Ti       2.27834187       6.70914615      21.59579217  F       0.01721697       0.00523701      -0.00494541
Ti       1.36568713       9.30923209      22.34581471  F      -0.01275314       0.02153592       0.02519499
Ti       3.91486325       4.46573252      22.35037284  F       0.00521439       0.00523754      -0.00517933
Al       4.82425608       7.06944138      22.98778283  F       0.00504220      -0.01010667      -0.00052666
Ti       2.33414526       2.19064759      22.98870211  F      -0.01352900       0.00832343      -0.00252819
Ti       1.37342205       4.84889498      23.62871675  F       0.01004959       0.03894760       0.00553928
Ti       3.97604038       9.70694465      23.63013398  F      -0.02569404       0.03448771       0.01598795
Ti       2.28853466       7.48450889      24.36617571  F       0.02359597      -0.02143877      -0.03662123
Ti       4.85154713       2.64085350      24.36475848  F       0.00356566      -0.03693115      -0.02898826
Ti       4.02221583       5.30440866      25.08586181  F       0.00824743       0.05641416       0.04042621
Ti       1.49592898       0.45659471      25.10493699  F      -0.00544805       0.04857883       0.05283856
Ti       4.90111679       7.97197630      25.73146876  F      -0.03604855      -0.09563150       0.05029513
Ti       2.33019638       3.12350010      25.75544681  F      -0.00741139      -0.09834343       0.04200394
Ti       1.44818619       5.73170838      26.49662122  F       0.04528259       0.03864991       0.23145139
Ti       3.98640110       0.87713555      26.45732174  F       0.04044325       0.01433376       0.19307573
Ti       2.33897450       8.37074068      27.16130336  F      -0.06025802       0.24142342       0.47102843
Ti       4.86791769       3.49112881      27.17317748  F      -0.04973961       0.24297571       0.44710643
Ti       1.51368877       1.34649812      27.83854908  F      -0.11411067       0.26254564       0.67893835
Ti       4.05610701       6.21707217      27.82292122  F      -0.10723166       0.25966781       0.67436822
Ti       4.93469755       8.93230260      28.54846777  F       0.18392618      -0.07860750      -0.08853210
Ti       2.39991755       4.07049367      28.56972626  F       0.15005396      -0.09719063      -0.09063409
Ti       3.83034395       1.87771324      29.33924532  F       0.84608697      -0.45745757      -0.63866872
Ti       1.29081613       6.75167647      29.33365300  F       0.83693677      -0.43306961      -0.63361589
