100
Lattice="4.4265 -2.555641 0.0 3.767997 6.526363 -0.031456 0.0 0.0 61.781652" Properties=species:S:1:pos:R:3:move_mask:L:1:forces:R:3 job_name=BondOrder-VacuumGB-CSL13-Al-Al-49-d-0.01 top_level=BondOrder-VacuumGB solute=Al energy=-759.13573937 stress_kbar_3x3="_JSON [[-36.15023008, -2.17985383, 0.22700161], [-2.17985381, -38.08778789, -0.69487156], [0.22700161, -0.6948716, -21.6074555]]" pbc="T T T"
Ti       2.40308771      -1.02427042       8.20761535  F       0.15948044       0.02369834       1.77743189
Ti       5.72013771       1.41366164       8.19237393  F      -0.05315555       0.14806454       1.77146032
Ti       5.06583351      -1.06225825       9.46847212  F       0.29858185      -0.10948252       0.21076832
Ti       4.35908662       3.69574232       9.45188261  F      -0.24947711       0.20778947       0.21200859
Ti       6.96147309       3.61690585      10.43703438  F      -0.20108253      -0.12851239      -1.25004146
Ti       3.69365946       1.15083432      10.44974172  F      -0.01382924      -0.23319964      -1.24462096
Ti       1.60432557      -0.69015141      11.07845016  F       0.19927806       0.01680899      -0.45444785
Ti       6.41029049       0.88763311      11.05987441  F      -0.08697078       0.17541084      -0.45121494
Ti       4.77799977       3.23818205      12.20787689  F      -0.07932367      -0.02729936      -0.21452320
Ti       4.45454753      -0.92623361      12.22286443  F       0.01450579      -0.08260610      -0.21458535
Ti       3.22967911       5.45123128      13.03827279  F      -0.10455352       0.04099347       0.11914680
Ti       2.72110932       1.39265776      13.04986607  F       0.08356019      -0.07355188       0.11882024
Ti       5.93443435       5.23407083      13.89477263  F       0.00314503      -0.03116981       0.06608121
Ti       5.60653193       1.07610548      13.90659527  F      -0.02979015      -0.01563230       0.06931008
Ti       3.90397512       3.41118288      14.90275568  F      -0.01924581      -0.00039791      -0.02782047
Ti       0.61786605       0.96790898      14.91597482  F       0.00009170      -0.01813161      -0.02535996
Ti       6.69562419       3.09259185      15.68962756  F       0.00995591      -0.01386921      -0.04188883
Ti       3.36992137       0.66122182      15.70486332  F      -0.02284606       0.00959879      -0.04326959
Ti       6.11639645       0.44120686      16.75948195  F       0.00889453      -0.00141700      -0.00108693
Ti       5.11801446       5.37143793      16.73935694  F      -0.00818284       0.00896336       0.00200947
Ti       4.57009680       2.67329487      17.53389240  F      -0.00273774       0.00792829       0.00645429
Ti       4.05081033      -1.39230943      17.54133232  F       0.00471042       0.00706021       0.01032504
Ti       7.22141213       2.47732025      18.40451341  F      -0.01423568       0.00789575       0.01226090
Ti       2.56269905       0.81855749      18.42072685  F       0.01162234      -0.00782432       0.01146332
Ti       5.70715109       4.79164300      19.62295515  F       0.01055201      -0.00313714       0.00167119
Ti       5.29838015       0.67242235      19.63301484  F      -0.00490374       0.00817141       0.00333934
Ti       0.32338509       0.47576287      20.13033041  F       0.00254022       0.00660539      -0.00741330
Ti       3.59604107       2.93091117      20.11493406  F       0.00436396       0.00494869      -0.00931543
Ti       2.87968507       0.47035893      21.20662620  F      -0.00183885       0.00975953       0.00466673
Ti       6.73291873       2.59583620      21.18175728  F       0.00982794       0.00056114       0.00681467
Ti       4.88074849       5.18490735      22.51890254  F       0.00286537       0.00671245       0.00360114
Ti       1.60857628       2.72589459      22.53400294  F       0.00444817       0.00563882       0.00276276
Ti       4.36465801       2.38777521      22.71994596  F       0.00317014       0.00560513      -0.00413786
Ti       3.86949871      -1.68846092      22.73095728  F       0.00222097       0.00798544       0.00237661
Ti       6.84665572       2.48451169      23.99329641  F       0.00040205       0.00498276       0.00247288
Ti       2.71878380       0.52702096      24.00589849  F       0.00486399       0.00677257       0.00334781
Ti       5.70956254       4.70913240      25.40798803  F       0.00805471       0.00706204      -0.00235011
Ti       5.20215175       0.63919521      25.42209124  F       0.00613649       0.00415619       0.00425946
Ti       3.54616067       2.85702819      25.34753157  F       0.00614385       0.00601042       0.00124024
Ti       0.26009471       0.38338616      25.37568800  F       0.00697298       0.00154840       0.00560668
Ti       2.66308596       0.59531677      26.81300256  F       0.01147205       0.00508514       0.00200006
Ti       6.87644332       2.46822750      26.80627350  F      -0.00135271      -0.00018365       0.00027475
Ti       4.86712481       5.32015889      28.25455954  F       0.00459127      -0.00034791      -0.00636840
Ti       5.96201039       0.17146135      28.40093674  F      -0.00209073       0.00067592       0.00422495
Ti       4.36255309       2.48805198      27.97306707  F      -0.00139175       0.00655722       0.00572461
Ti       3.75793618      -1.63303924      27.92633246  F       0.00464718      -0.00090017       0.00130560
Ti       6.66553808       2.71213240      29.59972185  F       0.00388437      -0.00402867       0.00113984
Ti       3.05109129       0.49594661      29.64128670  F      -0.00175456       0.00127456       0.00177398
Ti       3.67651667       3.09430158      30.54335080  F       0.00415026       0.00000154       0.00372289
Al       4.77473717      -1.84266566      30.44683337  F      -0.00058017      -0.00377275       0.00057267
Ti       5.67338588       4.96409789      31.19052230  F       0.00188104      -0.00146869      -0.00338103
Ti       5.44061087       0.80213374      31.29835489  F      -0.00083947      -0.00175061       0.00126201
Ti       2.42896294       1.04987925      32.34210901  F      -0.00443255       0.00100309      -0.00057176
Ti       3.04391526       5.22092989      32.31308250  F      -0.00384897      -0.00213250      -0.00036090
Ti       4.12982342      -1.08058754      33.05934443  F      -0.00842414      -0.00126651      -0.00681688
Ti       4.65000604       2.92574469      33.10599051  F      -0.00817590      -0.00110655       0.00272574
Ti       6.23409592       0.61566825      34.08026563  F      -0.00629492      -0.00814103       0.00716638
Ti       5.29750772       5.58035932      34.15750211  F       0.00213611       0.00088665      -0.00691609
Ti       3.56914188       0.92896864      34.94055621  F      -0.00195987      -0.00071700       0.00300002
Ti       6.76304836       3.29326032      34.96377193  F       0.00306548      -0.00588496      -0.00490093
Ti       5.02327066      -1.32533185      35.77286493  F      -0.00465665      -0.00316884      -0.00186454
Ti       4.09307299       3.57970826      35.79377348  F       0.00739631       0.00372159       0.00050907
Ti       5.69850792       1.22390198      36.97266663  F       0.00655785       0.00386747      -0.00494287
Ti       2.31788236      -1.19028173      37.00012588  F      -0.00007395       0.00256952      -0.00176304
Ti       3.37260597       5.65422773      37.52853783  F      -0.00020800       0.00629662      -0.00089403
Ti       2.82884300       1.54651511      37.54631323  F      -0.00145171       0.00229843      -0.00037112
Ti       4.68922755       3.41424488      38.54858909  F      -0.00311659       0.00208197       0.00372774
Ti       4.69773122      -0.92941683      38.58070706  F      -0.00451761       0.01103156      -0.00153490
Ti       2.06851630       3.43368985      39.82947056  F      -0.00514371       0.00638961      -0.00061735
Ti       1.60578810      -0.64592039      39.86705429  F       0.00374761       0.00375794      -0.00698594
Ti       3.74034099       1.21344183      40.15786672  F      -0.00413612       0.00684949       0.00372640
Ti       7.02256766       3.65697322      40.14212170  F      -0.00073979       0.00057464      -0.00341403
Ti       4.49402478       3.61443332      41.35278914  F       0.00083101       0.00197254       0.00035561
Ti       4.95154649      -1.00347971      41.37365533  F      -0.00521726      -0.00296438      -0.00465164
Ti       2.41187426      -1.06215789      42.69690873  F       0.00072294       0.01174536       0.00008699
Ti       5.71226136       1.39243427      42.67954128  F       0.00569088      -0.00173274       0.00111323
Ti       3.42030800       5.80278563      42.82116785  F       0.00140594      -0.00091467      -0.00790059
Ti       2.95414983       1.71760251      42.82955616  F      -0.00416747       0.00296800      -0.00007017
Ti       4.58745863       3.59313848      44.13105379  F       0.00692847       0.00013834      -0.00314378
Ti       4.87485452      -0.91658008      44.14582933  F       0.00027388       0.00059569       0.00002225
Ti       2.08126622       3.51334685      45.50058809  F      -0.00096973      -0.00306341      -0.00045327
Ti       1.61904306      -0.57153241      45.51298290  F       0.00084350      -0.00791535       0.00208398
Ti       7.05879679       3.72861755      45.52636698  F      -0.00940142       0.01038247      -0.01227964
Ti       3.74331505       1.29040658      45.54345959  F       0.01728419      -0.00527801      -0.01166728
Ti       4.56943424       3.62869312      46.89445617  F       0.01186602      -0.00258234      -0.01782954
Ti       4.89412898      -0.91199271      46.90994541  F      -0.00195608       0.00710039      -0.01757232
Ti       5.71515121       1.42949760      48.31184914  F       0.04483429      -0.04454877      -0.07460396
Ti       2.41238867      -1.01099234      48.32645217  F      -0.05139140       0.00748240      -0.07163361
Ti       3.41451188       5.84651715      48.24242361  F       0.06164265      -0.02852150       0.03979466
Ti       2.96076038       1.75991424      48.25690754  F      -0.04405765       0.03382376       0.04253301
Ti       4.54241629       3.65708361      49.65882995  F      -0.00363599       0.08309758       0.29662795
Ti       4.92556588      -0.91727283      49.67530742  F       0.08340125       0.03577585       0.29464091
Ti       2.09136946       3.53106086      51.13134451  F       0.21493316       0.00179541       0.72589539
Ti       1.61934694      -0.54635946      51.14750149  F      -0.10694613       0.18608086       0.73084302
Ti       7.05567925       3.75231124      50.94997550  F       0.41099265      -0.06449645       0.28145843
Ti       3.75526839       1.30711335      50.96242829  F      -0.25933882       0.32001540       0.29305661
Ti       4.64689307       3.59339631      52.43648342  F       0.19346121      -0.34183269      -0.24470816
Ti       4.82386474      -0.85905165      52.45393901  F      -0.39611115      -0.00319689      -0.25157728
Ti       3.42218250       5.81910702      53.61219718  F       0.09038272      -0.20016349      -1.21305748
Ti       2.94138761       1.74580293      53.62551564  F      -0.22485712      -0.02031773      -1.20613998
