52
Lattice="4.6568 0.0 0.0 0.0 7.770572 0.0 0.0 0.0 41.044546" Properties=species:S:1:pos:R:3:move_mask:L:1:forces:R:3 job_name=BondOrder-VacuumGB-CSL7-V-V-30-d-2.82 top_level=BondOrder-VacuumGB solute=V energy=-392.32880065 stress_kbar_3x3="_JSON [[-24.98007454, -0.35750354, -1.08966641], [-0.35750355, -26.46772064, -0.08351546], [-1.08966642, -0.08351548, -21.86550107]]" pbc="T T T"
Ti       1.81831276       7.39774773       8.21728229  F       1.08019418      -0.12398434       0.85515223
Ti       4.63199323       5.60241146       8.88294273  F      -0.11349712      -0.09734236       0.04203236
Ti       2.45922814       2.27839387       9.12723987  F      -0.58494168       0.31463124       0.69427962
Ti       4.56790634       0.62353401       9.59477830  F      -0.32508907      -0.34941659       0.26817179
Ti       2.35762142       5.01315344      10.34704273  F      -0.06404058      -0.00035058      -0.38245524
Ti       0.02416879       3.33721979      10.53096335  F       0.01218525       0.27497988       0.08029076
Ti       2.30977746       0.01367621      11.16637396  F      -0.03458964       0.17829859      -0.46399822
Ti       0.02876971       6.10630197      11.61802815  F      -0.01058055      -0.02480279      -0.22430405
Ti       2.34078709       2.76752807      12.12262979  F       0.01725679      -0.07683392      -0.20117118
Ti       0.00373475       1.11667005      12.52022831  F      -0.04156694      -0.08412662       0.10603877
Ti       2.34594682       5.57168662      13.14857927  F       0.04084503       0.03699635      -0.03885846
Ti       0.00897365       3.87354467      13.47611474  F      -0.00120142       0.00973557      -0.02299890
Ti       2.33612563       0.56559662      14.10380899  F      -0.00262336      -0.01326684      -0.00663583
Ti       0.01651767       6.64191196      14.46048609  F       0.02316435       0.01947620      -0.03157766
Ti       2.33418375       3.32513655      15.06125511  F       0.02405460      -0.01747410      -0.01864000
Ti       0.01373756       1.67159768      15.45996183  F       0.00314681      -0.04770408      -0.01121186
Ti       2.35265727       6.10363667      15.99099617  F      -0.00328867      -0.00668955      -0.01951209
Ti       4.63844289       4.42144770      16.41478110  F      -0.01527657       0.01676007      -0.00370494
Ti       2.34643113       1.10220124      17.03315823  F       0.00140842       0.00537892      -0.01926806
Ti       0.02236661       7.20600109      17.26965691  F       0.00937819      -0.00129749       0.01282367
Ti       2.22079532       3.81291866      17.99930580  F      -0.00644717      -0.00645145       0.00961715
Ti       0.12475567       2.14511302      18.45826592  F       0.00788251      -0.00322343       0.00253758
Ti       2.30604270       6.61236047      18.72136146  F      -0.00266931      -0.01296382       0.00736031
Ti       4.16358434       4.82147674      19.33858934  F      -0.00044600      -0.01885372      -0.00517647
Ti       2.69152795       1.59940906      20.03162650  F      -0.00441810      -0.01094444      -0.00302550
Ti       0.44422612       7.62412780      20.17877119  F       0.00177174       0.00250020       0.00480937
Ti       1.25468628       4.81970505      20.77358876  F       0.00333051      -0.00034242       0.01396404
Ti       3.15998340       6.52568751      21.48583476  F       0.00708911      -0.00383309       0.00041473
Ti       0.63185791       2.17781936      21.65444576  F      -0.00090514      -0.00403047      -0.00337517
Ti       3.16302429       3.73745864      22.06210019  F       0.00996543      -0.00809021       0.00886049
V        0.69615435       7.23440253      22.96011381  F      -0.00243703      -0.00089775      -0.00443008
Ti       3.02201639       1.04680484      22.98818828  F      -0.00270033      -0.00924706       0.00559551
Ti       0.77835618       4.52150935      23.61678550  F       0.00640018      -0.00177573       0.00040155
Ti       3.05036699       6.13366993      24.10927901  F       0.00627695       0.00172347       0.01031645
Ti       0.72399735       1.68893382      24.58149651  F      -0.01029066      -0.00234891      -0.00382526
Ti       3.07854994       3.33132969      24.97338984  F      -0.00309212      -0.00619202       0.00700037
Ti       0.72699168       6.66667677      25.62291978  F      -0.01308578      -0.02087066       0.00515288
Ti       3.06928757       0.58410613      25.96034699  F       0.00489104       0.00383422      -0.01803991
Ti       0.74451987       3.88428360      26.56817567  F       0.00037441       0.03971877       0.02258587
Ti       3.06122199       5.56804222      26.92530427  F      -0.02416160      -0.00291500      -0.00162857
Ti       0.74444536       1.12637549      27.54249110  F       0.08202399       0.03096779      -0.02277645
Ti       3.06833292       2.77461483      27.93118295  F      -0.01841041      -0.00980258      -0.00860712
Ti       0.71971310       6.10568810      28.45544494  F       0.01743802      -0.06268617       0.07101200
Ti       3.09745655       0.01480294      28.88809550  F       0.00715971       0.01957057       0.22544882
Ti       0.72885440       3.34418222      29.52445014  F      -0.02317705      -0.00498321       0.26101111
Ti       3.05255568       5.01387611      29.72495275  F       0.07624301       0.25315761       0.45257353
Ti       0.84119038       0.62548442      30.46490382  F      -0.18379323       0.13284815       0.07648043
Ti       2.94950070       2.27957500      30.93182658  F       0.36408133       0.15056596      -0.21889705
Ti       0.77853314       5.60059315      31.18523561  F      -0.10319630      -0.22678774       0.24721498
Ti       3.59125896       7.39759231      31.84313863  F      -1.26483407      -0.13934716      -0.18037138
Ti       0.37520303       2.80152432      32.55214212  F       0.33006937      -0.15229083      -1.30163316
Ti       2.70421307       4.57111668      32.55801149  F       0.72412896       0.06102362      -0.27502376
