100
Lattice="4.4265 -2.555641 0.0 3.767997 6.526363 -0.031456 0.0 0.0 61.781652" Properties=species:S:1:pos:R:3:move_mask:L:1:forces:R:3 job_name=BondOrder-VacuumGB-CSL13-Al-Al-64-d-6.97 top_level=BondOrder-VacuumGB solute=Al energy=-757.25864799 stress_kbar_3x3="_JSON [[-36.14313606, -2.36709735, 0.7552257], [-2.36709734, -36.71940008, -0.09239991], [0.75522571, -0.09239992, -23.55071704]]" pbc="T T T"
Ti       2.48732219      -0.89277561       8.02032184  F       0.11129414      -0.02283100       1.76612231
Ti       5.77927078       1.55816945       8.00508576  F      -0.07689609       0.08937106       1.76383891
Ti       4.99935551      -0.80240721       9.38438987  F       0.42019658      -0.00078173      -0.12155654
Ti       4.59853972       3.78068691       9.36915332  F      -0.22070235       0.35939579      -0.12742712
Ti       7.10870305       3.86543455      10.62327424  F      -0.14784105      -0.04703207      -0.98756058
Ti       3.81535396       1.41608123      10.64042271  F       0.02901623      -0.15272861      -0.98941957
Ti       1.66930718      -0.43848107      10.87852964  F       0.31311857      -0.25655948      -0.12344929
Ti       2.14986190       3.63702401      10.86316494  F      -0.38131059       0.13205766      -0.12573858
Ti       4.73676268       3.65506878      12.16413553  F       0.04208451      -0.12428494      -0.33517916
Ti       4.81683884      -0.74226321      12.18011135  F      -0.12341733      -0.02803635      -0.33773420
Ti       3.44722693       5.87286115      13.24814390  F      -0.08135724       0.03023240       0.03933564
Ti       2.95495713       1.80602548      13.26411953  F       0.06930468      -0.05564741       0.03575083
Ti       2.40955499      -0.95208095      13.75638353  F       0.03856242      -0.04300891       0.00700301
Ti       5.75782180       1.46576575      13.74077888  F      -0.05709645       0.01013940       0.00622154
Ti       4.27769569       3.76280849      14.95043885  F      -0.00214036       0.02774232      -0.03117898
Ti       5.13854906      -1.08472242      14.96622722  F       0.02279912       0.00892891      -0.02972464
Ti       6.92420969       3.59333578      15.84581030  F       0.00422663      -0.00468994      -0.01166154
Ti       3.66824901       1.12271822      15.86135129  F      -0.00453648      -0.00268695      -0.00846392
Ti       6.37514949       0.88591487      16.60652534  F      -0.00495248      -0.00195272      -0.00261453
Ti       1.59798606      -0.70707109      16.62225397  F       0.00129559      -0.00250899      -0.00230523
Ti       4.78834130       3.17960888      17.67858520  F      -0.00843035       0.00127546       0.01443190
Ti       4.37721476      -0.93444036      17.69480928  F       0.00556440      -0.00361110       0.01149166
Ti       3.17347348       5.40848921      18.47514463  F       0.00375796      -0.00045652       0.00432949
Ti       2.68886748       1.33755950      18.49025412  F      -0.00250165      -0.00167741       0.00802227
Ti       5.89508097       5.19446040      19.42896586  F       0.00013458       0.00130126      -0.00189369
Ti       5.56983417       1.03274287      19.44394739  F      -0.00615006      -0.00412516       0.00027754
Ti       0.58673728       0.91149805      20.36878340  F       0.00232069       0.00338382      -0.00206815
Ti       3.85523431       3.37533893      20.35274650  F      -0.00328194      -0.00265701      -0.00162004
Ti       3.30255518       0.64915787      21.17908724  F       0.00403352       0.00073436      -0.00647974
Ti       6.69691879       3.04022523      21.16360674  F      -0.00180353       0.00657176      -0.00641329
Ti       5.08744420       5.35675173      22.26911703  F       0.00785186       0.00141417       0.00018469
Ti       6.11122145       0.41571360      22.28496517  F       0.00055423      -0.00579173       0.00230420
Ti       4.53882894       2.63757885      22.96846266  F       0.00147595       0.00055025       0.00701117
Ti       4.03016137      -1.42227830      22.98481798  F       0.00320517       0.00612590      -0.00460481
Ti       7.16447400       2.50516385      23.90451960  F      -0.01306105       0.00052720       0.00779135
Ti       2.60399363       0.78553564      23.92093339  F       0.00156380       0.00782462      -0.00604340
Ti       5.73758309       4.79560137      25.14411823  F      -0.00503472      -0.01009439       0.00529037
Ti       5.29601380       0.69569974      25.15955154  F       0.00295021       0.00735198       0.00374548
Ti       3.60910924       2.94066547      25.56821439  F       0.00212995       0.00649336       0.01355153
Ti       0.32936381       0.48332755      25.58585759  F       0.00586523       0.01143435      -0.00503252
Ti       2.87599813       0.50752110      26.71711401  F       0.00870378       0.01435096       0.00480910
Ti       6.78091348       2.60681470      26.70069597  F      -0.01021248      -0.02045331       0.00668842
Ti       4.91483068       5.20415322      28.01516651  F      -0.00377614      -0.00451351      -0.00084535
Ti       1.62887085       2.74542574      28.03412512  F       0.00034438       0.03167627      -0.00170099
Ti       4.38179867       2.41787260      28.20749484  F       0.00031274      -0.01046646       0.00008797
Ti       3.90802399      -1.66299144      28.22175270  F      -0.00143471       0.01045310      -0.00174751
Ti       6.88321720       2.51290754      29.49489713  F      -0.01237250      -0.03123620      -0.02142510
Ti       2.73350961       0.54836624      29.50658176  F       0.01583586       0.01755867       0.01191815
Ti       3.56732505       2.86584993      30.89044354  F      -0.00405000      -0.00628361      -0.01362207
Ti       0.26723425       0.41980591      30.90431970  F       0.00728375       0.02567603       0.01130415
Ti       5.70832968       4.72344514      30.86356764  F      -0.00267674       0.01472952       0.00575691
Ti       5.23487070       0.64782006      30.88762918  F       0.00490135       0.00135594      -0.01074732
Ti       2.73459883       0.54153298      32.28134175  F      -0.00866261       0.00390094      -0.00733404
Ti       6.86496230       2.51356175      32.26763162  F      -0.00499488       0.00033345       0.03339845
Ti       3.91113430      -1.67248828      33.58739345  F       0.00020438      -0.02918575      -0.00370211
Ti       4.36132601       2.42109510      33.57715464  F       0.01726111      -0.00631385       0.01025139
Ti       1.61010943       2.76341925      33.73185030  F       0.00579705       0.02365104      -0.00504440
Ti       4.89628024       5.19537125      33.73207858  F       0.00153858       0.01547536       0.00517237
Ti       2.84544240       0.48567361      35.05765621  F       0.00010921       0.00452801       0.00002230
Ti       6.77369807       2.63104691      35.04627433  F      -0.01530266       0.01742245      -0.01794208
Ti       4.76199845      -1.96857059      36.23396996  F      -0.00928904      -0.00066571      -0.00415075
Ti       3.49643713       2.91142386      36.15953672  F       0.01153252      -0.00548048       0.00440660
Ti       5.26618425       0.81247063      36.58607891  F      -0.01306051       0.00613860      -0.00215742
Ti       5.64277865       4.77274264      36.68094838  F       0.01263188      -0.00112881      -0.00788902
Al       7.26811085       2.50178647      37.78405788  F       0.00207996       0.00552562       0.01230663
Ti       2.66518560       0.81291173      37.84103964  F       0.00534490      -0.00528375       0.00621116
Ti       4.57267379       2.81487361      38.72886837  F      -0.00503982       0.00502164      -0.02532862
Ti       3.97613946      -1.41541031      38.79470708  F      -0.00022976       0.01294168      -0.02209066
Ti       1.72676668       2.98881368      39.44608912  F       0.00267937      -0.00209099      -0.00561929
Ti       5.06993839       5.54267893      39.50624197  F       0.00318437       0.00265002      -0.00482579
Ti       3.43911347       0.73906155      40.56166740  F       0.00930688       0.00943448       0.00301672
Ti       6.77609094       3.06699261      40.50063113  F       0.00941122      -0.00040717       0.00112415
Ti       3.91120333       3.41257013      41.39489330  F      -0.00308757       0.00040772       0.02046708
Ti       0.60969233       1.04835129      41.36776252  F      -0.00251626       0.00374454       0.01637322
Ti       5.97170620       5.23798733      42.28452363  F      -0.00205707      -0.00759008      -0.00062137
Ti       5.66303725       1.13489471      42.33910780  F      -0.00596980       0.00109057      -0.00399288
Ti       3.28136166       5.53588215      43.17309532  F       0.00172935       0.00382634       0.00710956
Ti       2.75318855       1.38390024      43.22788186  F      -0.00276922       0.00543224       0.00995016
Ti       4.80063204       3.29660073      44.05803710  F       0.01025982       0.00618724       0.00228751
Ti       4.46107443      -0.85603648      44.05398692  F       0.00205560       0.00211548      -0.00536445
Ti       2.03658712       3.48881103      45.18450975  F      -0.00353476       0.00075359      -0.01378249
Ti       1.67175229      -0.62481507      45.18827936  F       0.01444547      -0.00884383      -0.01252051
Ti       7.00384725       3.65392816      45.79995012  F      -0.02429522      -0.01830266      -0.02414195
Ti       3.74645369       1.23126692      45.82143713  F      -0.00341827      -0.01192682      -0.01429825
Ti       4.40090452       3.78120683      46.79744474  F       0.02155402       0.00736496      -0.02871671
Ti       5.11635339      -0.99532305      46.79907013  F       0.00477989       0.03824040      -0.00008481
Ti       5.78202428       1.49989608      48.06995061  F       0.05317206      -0.04065781       0.00234085
Ti       2.46191397      -0.93952359      48.07513339  F      -0.04019673       0.01889589       0.00665773
Ti       3.48577918       5.91691085      48.40592713  F      -0.01999333      -0.07432964       0.02390402
Ti       2.99800449       1.83200808      48.41540983  F      -0.05850839      -0.03750108       0.04519388
Ti       4.70581361       3.69532701      49.58958771  F       0.00253308       0.01925190       0.40757074
Ti       4.89065863      -0.76246720      49.60370998  F       0.02568593       0.04034704       0.38133115
Ti       2.16066555       3.63694741      50.93113882  F       0.17353859      -0.03500689       0.48788506
Ti       1.68223199      -0.43523128      50.94722845  F      -0.09344698       0.12700723       0.48745439
Ti       7.12426565       3.86792717      51.04888288  F       0.48262670      -0.14715342       0.17122947
Ti       3.82464195       1.42000364      51.06820164  F      -0.35296560       0.36206805       0.15343915
Ti       4.63179289       3.76673538      52.37447737  F       0.15083410      -0.22990085       0.13377390
Ti       4.97800002      -0.78981656      52.38936125  F      -0.26226030       0.02483245       0.15170781
Ti       3.49403471       5.97250902      53.73443818  F       0.05019009      -0.08911150      -1.39744876
Ti       3.02694156       1.89051106      53.74967470  F      -0.09853894      -0.00224888      -1.39653982
