52
Lattice="5.088765 0.0 0.0 0.0 5.495746 0.0 0.0 0.0 48.722931" Properties=species:S:1:pos:R:3:move_mask:L:1:forces:R:3 job_name=BondOrder-VacuumGB-C1-Al-Al-36-d-6.31 top_level=BondOrder-VacuumGB solute=Al energy=-391.92815956 stress_kbar_3x3="_JSON [[-35.48456214, 0.17063751, -0.13412122], [0.17063749, -23.78712055, -0.09382251], [-0.1341212, -0.09382252, -20.25281071]]" pbc="T T T"
Ti       2.63196523       0.79654793      40.08367321  F       0.05893250      -0.00677594      -1.12576175
Ti       0.03755000       1.60055359       8.73772683  F       0.10841263      -0.00768919       0.74925598
Ti       0.82853236       4.34755826       8.73436495  F      -0.12565496      -0.00652430       0.75767056
Ti       2.57394314       2.35857084       9.95199972  F      -0.39747365       0.09654579      -0.02178129
Ti       3.36897616       5.10550407       9.94810188  F       0.39709340       0.09852632      -0.00274238
Ti       0.81286914       0.38838437      11.19633465  F      -0.07109353      -0.06736780      -0.58403162
Ti       0.03654242       3.13740598      11.19321638  F       0.07941035      -0.08256647      -0.56297487
Ti       3.37322019       1.18343746      12.43993874  F      -0.05254843      -0.01860540      -0.05501594
Ti       2.56498691       3.93179958      12.43716154  F       0.05870889      -0.01546239      -0.05096463
Ti       0.01302724       4.70310005      13.68130158  F      -0.00443766       0.01100338       0.07751672
Ti       0.83609427       1.95452359      13.68178881  F       0.01146858       0.01368519       0.07376265
Ti       3.37415652       2.73798615      14.92675714  F       0.00318278      -0.00196453      -0.01247919
Ti       2.56406075       5.48580420      14.92958307  F       0.00216122      -0.00612711      -0.01385296
Ti       0.83088846       3.53789748      16.17572075  F      -0.00903044      -0.01367064      -0.01059020
Ti       0.01837044       0.79045864      16.17718244  F       0.01626250      -0.01472347      -0.01404142
Ti       2.56053933       1.56968398      17.42117632  F       0.01201921       0.00268292       0.00255842
Ti       3.38322979       4.31810106      17.42429458  F      -0.00320668       0.00502701       0.00052821
Ti       0.83362113       5.09318261      18.66521891  F       0.00362817       0.00394950       0.00082130
Ti       0.03018655       2.34492490      18.66599848  F      -0.00200230       0.00454993      -0.00434595
Ti       3.36666077       0.39168731      19.90814088  F      -0.00148782      -0.00104751      -0.00400413
Ti       2.58976411       3.13785114      19.91130787  F       0.00276927       0.00011712      -0.00787418
Ti       0.04096965       3.91605427      21.15184242  F      -0.00397746      -0.00177660      -0.00481309
Ti       0.83107674       1.16924744      21.15384006  F      -0.00240775       0.00682801      -0.00554988
Ti       2.58888884       4.67439027      22.36129174  F      -0.00206261      -0.01119582      -0.00485454
Ti       3.37026870       1.92870458      22.37688307  F      -0.00887056      -0.01003005       0.00184591
Ti       0.78492673       2.72592849      23.75652159  F       0.00051665       0.00689361       0.00006037
Ti       0.09682902       5.47797825      23.72485168  F      -0.01170602       0.00729062      -0.00203039
Ti       3.36968350       1.90272069      25.15535694  F      -0.00061774       0.00157985       0.00174635
Ti       2.59833359       4.65359437      25.10829059  F       0.00163445       0.00558394      -0.00629539
Ti       0.05795086       3.91806021      26.31900670  F       0.00198326      -0.00287971       0.00022329
Ti       0.83473557       1.15673912      26.33464676  F      -0.00004935       0.00631070      -0.00257847
Ti       3.35896656       0.36276870      27.59998128  F       0.00520272      -0.00158466       0.00660556
Ti       2.51611441       3.12789284      27.60938480  F       0.00054997       0.00215237       0.00080842
Ti       0.78241797       5.14895893      28.86156413  F      -0.00856687      -0.00478068       0.00004655
Ti       5.01709992       2.42318982      28.72704012  F      -0.01043967       0.01091421      -0.00039727
Ti       2.62408274       1.57805400      30.04967280  F       0.00098649      -0.00194311       0.01401132
Al       3.32356911       4.31872208      30.05337575  F       0.00209494      -0.00238617       0.00283924
Ti       4.99472462       0.71899746      31.37932159  F       0.00979141      -0.00623570      -0.01828940
Ti       0.77912045       3.47633963      31.24323844  F      -0.00525264       0.00224314       0.00619100
Ti       3.37643120       2.77514289      32.51729437  F      -0.00288624       0.01093458       0.00195647
Ti       2.47680370       0.02372514      32.48348065  F       0.00249463      -0.02561637       0.01360129
Ti       0.84826659       1.97509417      33.77600257  F       0.02104456       0.01176232      -0.00923658
Ti       0.05977772       4.70991478      33.78350590  F      -0.00138342      -0.00319109       0.00338432
Ti       2.58518931       3.92917811      35.04158070  F      -0.01675264       0.01279527      -0.05515580
Ti       3.38047168       1.17481463      34.96186998  F      -0.01095684       0.01131184      -0.05374048
Ti       0.82013590       0.40976282      36.24966577  F       0.01763590      -0.01418874       0.02760158
Ti       0.03108218       3.14431963      36.25994631  F      -0.00043776      -0.02094460       0.04011304
Ti       2.59212020       2.36463265      37.47402431  F       0.08114461      -0.09629806       0.75553165
Ti       3.38576908       5.12357408      37.49429304  F      -0.07847687      -0.09102568       0.75180251
Ti       0.84008895       4.35959944      38.69901624  F       0.27577154       0.11472220       0.27849438
Ti       0.06136033       1.61169346      38.71231760  F      -0.30067854       0.07800890       0.24948123
Ti       3.32924308       3.54991118      40.08620681  F      -0.04244217       0.01118307      -1.18505652
