64
Lattice="5.871999 0.0 0.0 0.0 6.890708 0.0 0.0 0.0 43.401158" Properties=species:S:1:pos:R:3:move_mask:L:1:forces:R:3 job_name=BondOrder-VacuumGB-T1m-V-V-44-d-4.84 top_level=BondOrder-VacuumGB solute=V energy=-485.82455653 stress_kbar_3x3="_JSON [[-19.42444961, 0.00018595, 0.00070583], [0.00018597, -27.63245502, -0.69834123], [0.00070584, -0.69834122, -18.45563839]]" pbc="T T T"
Ti       2.92733830       0.10037694      34.53065572  F       0.01459687      -0.28358921      -0.20094682
Ti       2.93402064       2.93505573      34.52787805  F      -0.00005713       0.13108511      -0.98171147
Ti       0.00870817       0.10040451      34.53065572  F      -0.01449332      -0.28362286      -0.20064055
Ti       0.00206107       2.93506262      34.52787805  F       0.00009904       0.13128224      -0.98161218
Ti       4.40404623       5.02896273       8.54317074  F      -0.00018088      -0.02152734       0.94399043
Ti       1.46802324       5.02822543       8.54278013  F      -0.00005708      -0.01664626       0.95196535
Ti       4.40405210       1.31753782       9.15946719  F      -0.00015335      -0.24984112       0.19289740
Ti       1.46797626       1.31919159       9.16549995  F       0.00020201      -0.26394064       0.16340044
Ti       2.93693902       3.41289877      10.34813810  F       0.00209719       0.13524960      -0.25457249
Ti       5.87108884       3.41293322      10.34809470  F      -0.00202448       0.13498592      -0.25433565
Ti       2.93554148       6.22613367      10.75432954  F       0.00326331       0.14226547      -0.54319467
Ti       0.00049325       6.22613367      10.75437294  F      -0.00330640       0.14204575      -0.54346199
Ti       1.46799975       1.49238265      11.97963103  F       0.00012398      -0.02861194      -0.01450154
Ti       4.40400512       1.49102518      11.97824220  F      -0.00004987      -0.02594120      -0.00911916
Ti       1.46801737       4.44088215      12.58690004  F       0.00010331      -0.00538951       0.05389816
Ti       4.40401099       4.44027577      12.58720384  F      -0.00006051      -0.00817523       0.05057205
Ti       2.93384448       6.59772888      13.75031148  F       0.00447336       0.04115760      -0.11211411
Ti       0.00217264       6.59771510      13.75031148  F      -0.00446978       0.04128414      -0.11195078
Ti       2.93441993       2.51855377      14.25194206  F       0.00221110       0.02230256       0.03914212
Ti       0.00161480       2.51856066      14.25194206  F      -0.00224983       0.02225586       0.03913247
Ti       4.40403448       4.67586907      15.41587432  F      -0.00023348      -0.02303905      -0.00742490
Ti       1.46798801       4.68014820      15.41578751  F       0.00021221      -0.02744449      -0.01159564
Ti       4.40401687       0.73521098      16.01363846  F      -0.00011344       0.00519535      -0.02166063
Ti       1.46799975       0.73465283      16.03217076  F       0.00013888       0.00460217      -0.03674193
Ti       0.00122725       2.89236090      17.24158743  F      -0.00083745      -0.00869004      -0.01368037
Ti       2.93477812       2.89231956      17.24158743  F       0.00082014      -0.00848516      -0.01379177
Ti       0.00764534       5.71263122      17.65342102  F      -0.00408012       0.03408633       0.03200851
Ti       2.92837177       5.71260365      17.65346442  F       0.00402808       0.03415017       0.03171514
Ti       1.46802911       0.92682779      18.85741254  F      -0.00012187       0.00046915      -0.00172534
Ti       4.40396989       0.92028162      18.83050382  F       0.00014194       0.00517188       0.00124717
Ti       1.46801737       4.09250862      19.46546276  F      -0.00008777       0.01101372      -0.01737582
Ti       4.40396402       4.09314946      19.44879672  F       0.00012522       0.00660726      -0.00405641
Ti       2.95997487       2.14903267      20.88854333  F      -0.00989131       0.00450820       0.00778629
Ti       5.84800601       2.14903956      20.88849993  F       0.00998250       0.00436228       0.00794719
Ti       2.94190086       6.19476027      20.85412622  F      -0.00420606      -0.00019231      -0.00362076
Ti       5.86608590       6.19471893      20.85408281  F       0.00425489       0.00003751      -0.00347529
Ti       4.40398163       4.12642469      22.29196318  F       0.00009083       0.01660949       0.00826034
Ti       1.46802911       4.13708461      22.30454951  F      -0.00009982       0.01265868       0.00443914
Ti       4.40398751       0.90008495      22.92397084  F       0.00006757      -0.00678585      -0.01337734
Ti       1.46800562       0.88167298      22.86668131  F      -0.00006915      -0.01451331       0.00050079
Ti       2.94733833       5.73565996      24.13134766  F      -0.00883617      -0.00385200      -0.00352083
Ti       5.86068366       5.73567374      24.13139106  F       0.00875414      -0.00403192      -0.00418729
Ti       2.96074410       2.86760259      24.45655253  F      -0.00277182      -0.00821345      -0.00469112
Ti       5.84726614       2.86760948      24.45659593  F       0.00274946      -0.00807939      -0.00497632
V        4.40409320       0.75101826      25.67612507  F      -0.00015772       0.00729054       0.00735605
Ti       1.46795277       0.74222572      25.66379914  F       0.00020971       0.00376799      -0.01254010
Ti       4.40405797       4.67458051      26.29250832  F      -0.00040182      -0.00338257       0.00410922
Ti       1.46795865       4.61186129      26.27588568  F       0.00033385       0.02028944      -0.02148530
Ti       5.84666132       2.47388820      27.40527061  F      -0.01037492      -0.01715563       0.02440613
Ti       2.96137241       2.47389510      27.40531401  F       0.01042051      -0.01700411       0.02427386
Ti       5.84590384       6.58370629      27.88012268  F       0.00171316       0.00197067      -0.00106851
Ti       2.96210641       6.58369940      27.88007928  F      -0.00157612       0.00185917      -0.00112835
Ti       1.46801149       4.43545227      29.06857659  F       0.00014293      -0.03885131      -0.00657174
Ti       4.40406971       4.42103002      29.08450481  F      -0.00015888      -0.03664243      -0.03638960
Ti       1.46799388       1.47727822      29.66473489  F       0.00009661       0.00405888      -0.00057270
Ti       4.40404623       1.48236356      29.69663475  F      -0.00013585       0.01396595      -0.02495582
Ti       2.93421441       6.22012497      30.90453237  F      -0.00650486       0.00473811       0.03543543
Ti       0.00186142       6.22009741      30.90453237  F       0.00657299       0.00474473       0.03533235
Ti       2.93217683       3.40885392      31.31124463  F      -0.00547135       0.00428615      -0.05295094
Ti       0.00389314       3.40885392      31.31128803  F       0.00556291       0.00431911      -0.05300006
Ti       4.40411669       1.31665581      32.50525388  F      -0.00042814      -0.07031100       0.68182842
Ti       1.46800562       1.31553263      32.48333630  F       0.00024096      -0.06693126       0.69827036
Ti       4.40405797       5.02639939      33.11903306  F      -0.00029856       0.20546693       0.27553850
Ti       1.46801737       5.03012037      33.11681960  F       0.00012965       0.19074647       0.26927300
