52
Lattice="4.6568 0.0 0.0 0.0 7.770572 0.0 0.0 0.0 41.044546" Properties=species:S:1:pos:R:3:move_mask:L:1:forces:R:3 job_name=BondOrder-VacuumGB-CSL7-V-V-39-d-6.91 top_level=BondOrder-VacuumGB solute=V energy=-392.21436907 stress_kbar_3x3="_JSON [[-25.05571811, -0.15435687, -1.14589377], [-0.15435682, -26.67203129, -0.34911314], [-1.14589374, -0.34911313, -21.24652233]]" pbc="T T T"
Ti       1.82314651       7.38038827       8.21769273  F       1.04108138      -0.09211680       0.85504392
Ti       4.62429554       5.59697983       8.86266673  F      -0.09877887      -0.11183294       0.03555951
Ti       2.45980558       2.27513801       9.12128841  F      -0.59545126       0.28062190       0.67016758
Ti       4.56431595       0.61873180       9.58829326  F      -0.27901590      -0.37211771       0.23338630
Ti       2.35113915       5.00641636      10.32340108  F      -0.04782973       0.03469403      -0.36340394
Ti       0.02086246       3.33571230      10.52702307  F       0.00675528       0.28315924       0.03900392
Ti       2.31122572       0.01197445      11.16313144  F      -0.05165399       0.17587437      -0.48136815
Ti       0.02777316       6.10302279      11.59492007  F      -0.01298932      -0.01901070      -0.23370943
Ti       2.33834227       2.76681318      12.11257388  F       0.02070139      -0.08637052      -0.20095196
Ti       0.00283133       1.11625821      12.50775077  F      -0.04176968      -0.08330648       0.09764904
Ti       2.34368827       5.56727293      13.12571745  F       0.03760604       0.03526581      -0.04961314
Ti       0.00557885       3.87413523      13.46408869  F       0.00181915       0.00470424      -0.03436899
Ti       2.33401610       0.56615611      14.09387621  F      -0.00027654      -0.00255436      -0.00924555
Ti       0.01532087       6.64224609      14.42588554  F       0.02595918       0.01999597      -0.04034250
Ti       2.33004385       3.32379224      15.04881861  F       0.02774767      -0.02053267      -0.02947437
Ti       0.00938345       1.67463597      15.44407759  F       0.00230319      -0.04263827      -0.01895198
Ti       2.35698810       6.10626312      15.95643666  F      -0.00404551      -0.00289569      -0.02290643
Ti       4.63680836       4.42956795      16.39507972  F      -0.01572852       0.01467676      -0.00214894
Ti       2.35127420       1.10352224      17.03295301  F      -0.00682717       0.01364639      -0.01833680
Ti       0.02551926       7.20231007      17.22381015  F       0.01277877      -0.00791961       0.01811423
Ti       2.23857033       3.81747999      17.96433585  F      -0.00594773       0.00009259       0.02340457
Ti       0.12644609       2.16600809      18.43261307  F       0.00920222       0.00222704       0.01263225
Ti       2.30193075       6.61268684      18.68819746  F      -0.00224675      -0.01199536       0.01722163
Ti       4.14071014       4.82357480      19.34437662  F       0.00917816      -0.02347213       0.00982841
Ti       2.70663927       1.63700309      20.05046594  F      -0.00462560      -0.01122785       0.00648738
Ti       0.37396432       7.63939697      20.05912634  F      -0.00656126      -0.00454287      -0.00251919
Ti       1.26850301       4.81867157      20.75737616  F      -0.01229799      -0.01916410       0.00814729
Ti       3.10398073       6.61033235      21.43929025  F       0.00111784       0.00906601      -0.01240975
Ti       0.62376439       2.15833077      21.66302407  F      -0.00088097       0.00043964       0.02085084
Ti       3.17176045       3.81329165      22.13848409  F       0.01564638      -0.01986784       0.00993807
Ti       0.72300545       7.19943496      22.90523725  F      -0.00650862      -0.00258237      -0.01675131
Ti       3.05709606       1.10821567      23.08156462  F       0.00564441      -0.00772805       0.00521774
Ti       0.78611906       4.41114392      23.67055386  F       0.00165612       0.00908609       0.01156996
Ti       3.05221108       6.07849109      24.18927483  F       0.00722258       0.01272601      -0.00452524
Ti       0.74442673       1.67852903      24.66333934  F      -0.00878071       0.01078841       0.01081526
Ti       3.07691075       3.33230101      25.06656095  F      -0.00346859      -0.02041905       0.00370509
Ti       0.72973919       6.61716269      25.68740076  F      -0.02194329       0.01184743      -0.00194102
Ti       3.07190934       0.54099499      26.00763031  F       0.02173069      -0.02058557      -0.01211257
Ti       0.74632205       3.93599675      26.64107078  F      -0.00859311       0.01232619       0.03820779
V        3.05423679       5.59342091      26.94779668  F      -0.00630409       0.02279225      -0.01391033
Ti       0.75706995       1.15330830      27.57356182  F       0.07569588       0.03645085      -0.00658575
Ti       3.06667976       2.77201169      27.96052980  F      -0.02177438      -0.01879551       0.02967686
Ti       0.73508054       6.11035821      28.41423622  F      -0.00209168      -0.06835120       0.09356153
Ti       3.11409530       0.00376873      28.89819246  F       0.02130013       0.01088028       0.27318566
Ti       0.70951470       3.32199724      29.58191250  F      -0.02322511       0.01331178       0.34877079
Ti       3.04051786       5.02038785      29.64003158  F       0.05970788       0.26459744       0.40740074
Ti       0.84453862       0.62349516      30.47996717  F      -0.17844602       0.18629813       0.06469766
Ti       2.95379893       2.26558797      30.92961017  F       0.37453403       0.09726164      -0.23608853
Ti       0.77910127       5.61421496      31.15847456  F      -0.06231969      -0.27722167       0.23681615
Ti       3.58696540       7.38602193      31.83025065  F      -1.27879150      -0.15101697      -0.15887127
Ti       0.38430242       2.80069287      32.55119810  F       0.33330201      -0.13109783      -1.26269526
Ti       2.71861656       4.56500902      32.51310876  F       0.69648322       0.06653362      -0.34782778
