64
Lattice="5.872 0.0 0.0 0.0 6.890708 0.0 0.0 0.0 43.394398" Properties=species:S:1:pos:R:3:move_mask:L:1:forces:R:3 job_name=BondOrder-VacuumGB-T1g-V-V-49-d-6.96 top_level=BondOrder-VacuumGB solute=V energy=-485.83454311 stress_kbar_3x3="_JSON [[-18.9445919, -0.00045123, -0.00038516], [-0.00045124, -28.86713663, -1.36113705], [-0.00038516, -1.36113705, -18.03533805]]" pbc="T T T"
Ti       4.40390018       5.20619863      34.63367657  F       0.00019359      -0.29374223      -0.45452388
Ti       1.46807046       5.20743896      34.62747117  F      -0.00024400      -0.30352923      -0.47392944
Ti       0.00068702       3.18843395       8.53784781  F      -0.00226622       0.16452877       0.95217075
Ti       2.93534821       3.18837883       8.53784781  F       0.00211298       0.16475210       0.95238460
Ti       0.00273635       6.62590498       9.15647834  F      -0.01354553      -0.20315399       0.13781132
Ti       2.93323429       6.62595322       9.15656513  F       0.01355880      -0.20338578       0.13807104
Ti       4.40401762       1.76414528      10.44559573  F      -0.00067344       0.03461468      -0.51212168
Ti       1.46793541       1.76544762      10.44542215  F       0.00071430       0.03208841      -0.50545343
Ti       1.46798826       4.59145101      10.66304505  F       0.00039339       0.12560830      -0.35751959
Ti       4.40400587       4.59120294      10.66239414  F      -0.00049332       0.12732607      -0.36029871
Ti       5.87190018       6.72322934      11.97533504  F       0.00083270      -0.10516414       0.01557789
Ti       2.93605872       6.72319489      11.97533504  F      -0.00090327      -0.10483162       0.01502874
Ti       2.93617616       2.87456909      12.58637156  F       0.00018144      -0.06634001       0.10685452
Ti       5.87172989       2.87452775      12.58641496  F      -0.00014083      -0.06600844       0.10695352
Ti       4.40394128       5.00578239      13.74626043  F       0.00014136       0.05634353      -0.08137226
Ti       1.46798238       5.00607180      13.74734529  F      -0.00005922       0.05519407      -0.08454016
Ti       4.40396477       0.93127230      14.22329504  F      -0.00015022       0.01339919       0.03481315
Ti       1.46794715       0.93151347      14.22381578  F       0.00022882       0.01356233       0.03477709
Ti       2.93607046       3.09079951      15.40770174  F       0.00105130      -0.02539480      -0.04007749
Ti       5.87188256       3.09075128      15.40774514  F      -0.00109172      -0.02496660      -0.03989919
Ti       2.93622314       6.02530398      16.00871415  F       0.00000194      -0.00015286      -0.04670920
Ti       5.87173576       6.02538667      16.00875755  F      -0.00004444      -0.00075798      -0.04714585
Ti       4.40401762       1.29517058      17.19199260  F      -0.00033041      -0.01009647       0.00343602
Ti       1.46797651       1.29489496      17.19377177  F       0.00038006      -0.01292538       0.00429150
Ti       4.40391192       4.10957002      17.66876685  F       0.00032131       0.01851632       0.03080099
Ti       1.46805872       4.10952867      17.66811593  F      -0.00037819       0.01861720       0.03101820
Ti       2.93575338       6.23958433      18.82718031  F      -0.00023767       0.00414047       0.01008903
Ti       0.00025837       6.23961189      18.82718031  F       0.00035859       0.00372207       0.01001207
Ti       2.93831944       2.39514808      19.43826022  F       0.00001656      -0.00867501       0.01759960
Ti       5.86975102       2.39511363      19.43813003  F       0.00023674      -0.00845436       0.01846201
Ti       1.46813506       4.52318476      20.75341424  F      -0.00011676      -0.02169988       0.00484426
Ti       4.40413506       4.52459047      20.75419534  F      -0.00019168      -0.01721356       0.00313222
Ti       4.40408221       0.46000988      20.96786935  F      -0.00025083       0.02188898       0.00119282
Ti       1.46800587       0.45606151      20.96457138  F       0.00006768       0.03267450      -0.00142555
Ti       5.86920493       2.48669114      22.26401663  F      -0.00254456       0.00337163      -0.00420625
Ti       2.93891251       2.48667736      22.26401663  F       0.00271628       0.00332318      -0.00370740
Ti       0.01045803       5.92738013      22.87778699  F      -0.00422696       0.00682520       0.00623406
Ti       2.92572400       5.92741458      22.87787378  F       0.00430205       0.00678690       0.00575552
Ti       4.40405872       3.91102805      24.16377998  F      -0.00002204       0.02043772      -0.01407531
Ti       1.46804110       3.90194609      24.19602201  F      -0.00000414       0.00272349       0.00141911
Ti       4.40414093       1.08097982      24.39624377  F      -0.00019252      -0.01474661      -0.01011713
Ti       1.46811744       1.07669380      24.38274811  F      -0.00002317      -0.00695539      -0.00069226
Ti       5.85389075       5.83386633      25.71968612  F      -0.00585305       0.00024988      -0.00122829
Ti       2.95423256       5.83387322      25.71972951  F       0.00579563       0.00039701      -0.00078301
Ti       2.97481979       2.82957277      26.31418937  F      -0.00267315       0.01776191       0.00017800
Ti       5.83323306       2.82961411      26.31427616  F       0.00266913       0.01769401      -0.00010062
Ti       4.40400000       0.63341455      27.43471951  F       0.00003697      -0.02042021       0.00677439
Ti       1.46792954       0.71491095      27.46001845  F       0.00012058      -0.02093364       0.01049710
Ti       1.46797064       4.75906059      27.90719772  F       0.00015249       0.01631322      -0.00961996
V        4.40412918       4.74260558      27.91171074  F       0.00002763       0.00629683      -0.02573631
Ti       2.97097363       2.62006079      29.09268928  F      -0.00096226      -0.02094594      -0.01976631
Ti       5.83697939       2.62008147      29.09273267  F       0.00094318      -0.02141060      -0.01962825
Ti       2.94013389       6.49704185      29.65946351  F      -0.01215933       0.01548860       0.01068915
Ti       5.86788960       6.49697984      29.65976727  F       0.01199374       0.01603325       0.00949750
Ti       4.40400000       4.36981139      30.85988274  F      -0.00043584       0.00476965       0.02591007
Ti       1.46790605       4.37751520      30.89642083  F       0.00058063       0.02074599       0.03884343
Ti       4.40392954       1.53983206      31.32498390  F       0.00025834       0.03008373      -0.02019344
Ti       1.46800000       1.54312582      31.30701862  F      -0.00015838       0.02381513      -0.04092163
Ti       2.93568291       6.32317551      32.49437614  F       0.00418871      -0.06803785       0.73952933
Ti       0.00028186       6.32310660      32.49450632  F      -0.00414866      -0.06758964       0.73968079
Ti       5.86688549       3.26408704      33.10771256  F       0.00814329       0.23709989       0.24646833
Ti       2.94108515       3.26409393      33.10775595  F      -0.00809716       0.23718117       0.24605223
Ti       1.46806459       1.14018478      34.42967950  F      -0.00001972       0.06348007      -0.77960004
Ti       4.40402349       1.14159049      34.43280390  F      -0.00008154       0.07967678      -0.76145771
