64
Lattice="5.088765 0.0 0.0 0.0 9.739025 0.0 0.0 0.0 38.303587" Properties=species:S:1:pos:R:3:move_mask:L:1:forces:R:3 job_name=BondOrder-VacuumGB-T2-Al-Al-51-d-6.29 top_level=BondOrder-VacuumGB solute=Al energy=-477.63867421 stress_kbar_3x3="_JSON [[-18.61316218, -0.39643219, 0.19737307], [-0.39643224, -20.20201172, 0.09698223], [0.19737309, 0.09698227, -21.29608532]]" pbc="T T T"
Ti       2.51962057       9.25322295       8.35133107  F       0.88592386      -0.00814530       0.91544768
Ti       0.00446285       4.38464540       8.37071269  F       0.85071740       0.06934098       0.88751085
Ti       1.26170839       1.87646664       8.95438275  F      -0.82624224      -0.42739703       0.63852918
Ti       3.81678239       6.75639016       8.96675481  F      -0.83905284      -0.43625432       0.62353838
Ti       2.68978887       4.07923932       9.72451467  F      -0.13861863      -0.10689472       0.10696265
Ti       0.15871858       8.94658001       9.75197834  F      -0.16979102      -0.06656649       0.06567167
Ti       1.04420949       6.22062692      10.47357961  F       0.10469149       0.25793048      -0.71145283
Ti       3.58140156       1.35234153      10.45592166  F       0.09598714       0.28276686      -0.64615414
Ti       0.22384968       3.50145218      11.11110452  F       0.04167121       0.23712820      -0.47265510
Ti       2.76573869       8.37315596      11.12117836  F       0.04511137       0.24039650      -0.48289983
Ti       1.10963065       0.87387297      11.84592053  F      -0.06007084       0.01867298      -0.18173365
Ti       3.65469505       5.73935352      11.84247321  F      -0.04899270       0.02046438      -0.19836871
Ti       2.75447216       3.10702167      12.53366143  F       0.01917180      -0.07393304      -0.03005834
Ti       0.21035937       7.97575505      12.54204992  F       0.01080195      -0.07065822      -0.03518978
Ti       3.61559807       0.43908394      13.20006724  F       0.01004496       0.03513657      -0.01763678
Ti       1.07040645       5.30700898      13.20328474  F       0.00813773       0.03198218      -0.01498005
Ti       2.75197358       7.52271508      13.92530736  F      -0.00243001      -0.03307938       0.03282622
Ti       0.20601865       2.65259876      13.92546057  F       0.00449593      -0.02781637       0.03732018
Ti       3.61376611       4.87019423      14.64346131  F       0.00621671       0.01692757      -0.02613015
Ti       1.07163793       0.00037982      14.64533819  F      -0.00047747       0.02355668      -0.02546576
Ti       0.21174860       7.06817531      15.31235685  F       0.00752447      -0.00405824       0.00282404
Ti       2.75687406       2.19854594      15.31224194  F       0.00622815      -0.00708449      -0.00488896
Ti       1.10883172       4.43231793      16.00189802  F       0.00123675       0.01630736      -0.00978963
Ti       3.65518357       9.30513196      16.00300883  F      -0.00036686       0.01067838      -0.01315580
Ti       0.22594625       1.80498220      16.73958681  F      -0.01787324       0.01446459      -0.00390055
Ti       2.76694981       6.67238133      16.73464564  F      -0.01217010       0.01021351       0.00649855
Ti       1.04169055       8.82535837      17.38224439  F      -0.00790874       0.01630131       0.00832205
Ti       3.58532500       3.95643021      17.38063564  F      -0.01107332       0.02069149       0.00977759
Ti       2.70446487       1.22885070      18.11119995  F       0.00390985      -0.01901640       0.01309975
Ti       0.16314072       6.10614468      18.10802075  F      -0.00044485      -0.02147346       0.01064900
Ti       3.81238570       8.29434777      18.89029491  F      -0.00148833      -0.01252684       0.01423757
Ti       1.27088853       3.42792254      18.88780518  F       0.00168781      -0.00529800       0.01610503
Ti       5.08502476       0.92130203      19.49097176  F      -0.00661174      -0.01560485       0.00128864
Ti       2.53543136       5.79194425      19.50441632  F       0.00913937      -0.01184382      -0.01264641
Ti       3.80522072       3.43118511      20.12006988  F       0.00381535      -0.00792958       0.00217943
Ti       1.26452757       8.30617095      20.13056506  F      -0.00076151      -0.00290080      -0.00736642
Ti       2.34757960       1.24320602      20.90062037  F      -0.01835706      -0.00750425      -0.00087400
Ti       4.91366060       6.11838663      20.88545215  F      -0.01684507      -0.01610017      -0.01218632
Ti       1.49357288       3.95934218      21.63888371  F       0.01294466       0.00806393      -0.00921799
Ti       4.02867856       8.84326844      21.63853898  F       0.00116514       0.01357893      -0.00691380
Ti       4.84610215       1.81672746      22.24702976  F      -0.00305381       0.01258520      -0.02334478
Ti       2.31461458       6.67266376      22.26909262  F       0.00580658       0.04066870      -0.00023442
Ti       1.41241726       9.31344909      23.03275124  F       0.03621108      -0.01759879      -0.00800826
Ti       3.98266595       4.43140246      22.99862274  F       0.00300600      -0.01311660       0.00476656
Ti       4.86430975       7.04927186      23.67211471  F       0.00284683       0.05561454       0.03565101
Ti       2.35838305       2.19906211      23.70723910  F       0.03560696       0.01914911       0.03764672
Ti       1.49346602       4.86597723      24.37452589  F      -0.01959510      -0.01969671      -0.00804506
Ti       4.04725764       0.00444100      24.38850670  F      -0.00792064      -0.03393569      -0.03843477
Ti       2.34835818       7.53435322      25.09233511  F       0.00390833       0.03651334      -0.00106853
Ti       4.95052870       2.65341684      25.06544599  F      -0.02267381       0.02088555       0.03279438
Ti       4.02029228       5.31062216      25.78884754  F       0.04205046      -0.03625995       0.13246829
Al       1.50336876       0.44225886      25.78382977  F       0.06680064       0.00733215       0.03250047
Ti       4.93974561       7.97816058      26.47065139  F      -0.07127628       0.06310272       0.20456966
Ti       2.35318233       3.08821561      26.45084843  F      -0.08620537      -0.01198526       0.18522136
Ti       1.45732561       5.76529828      27.13874255  F       0.11928684       0.01568755       0.53138487
Ti       4.03020519       0.88412817      27.13150317  F       0.14267974       0.05982755       0.44384785
Ti       2.34492327       8.38023623      27.86459552  F       0.18186657       0.35317429       0.32919217
Ti       4.86188241       3.53201324      27.89110161  F       0.08036031       0.22886469       0.40828600
Ti       1.46464834       1.32718563      28.50162248  F      -0.35178554       0.17531523       0.24166421
Ti       4.03637278       6.21394595      28.52847329  F      -0.29292635       0.15481571       0.21328613
Ti       4.88450197       8.91594104      29.28443289  F      -0.80300327      -0.51411505      -0.48356254
Ti       2.34592066       4.04166616      29.24509510  F      -0.70076839      -0.58656474      -0.50595828
Ti       3.80473728       1.86908446      30.00806425  F       0.82542275       0.01785589      -1.10437070
Ti       1.27715280       6.73463318      30.01737202  F       0.86230893       0.00936345      -1.12937580
