64
Lattice="5.871999 0.0 0.0 0.0 6.890708 0.0 0.0 0.0 43.401158" Properties=species:S:1:pos:R:3:move_mask:L:1:forces:R:3 job_name=BondOrder-VacuumGB-T1m-V-V-35-d-0.00 top_level=BondOrder-VacuumGB solute=V energy=-485.72272953 stress_kbar_3x3="_JSON [[-19.18121297, 0.000369, -0.00028211], [0.00036901, -28.32110463, -0.54280735], [-0.00028211, -0.54280734, -18.46675128]]" pbc="T T T"
Ti       2.93604648       0.08455588       8.85644030  F       0.00032082      -0.28926752       0.19894645
Ti       2.93600537       2.91682981       8.85644030  F       0.00047925       0.13252447       0.97526187
Ti       0.00000587       0.08229573       8.85644030  F      -0.00041004      -0.28747387       0.19548802
Ti       0.00002349       2.91538965       8.85657050  F      -0.00047283       0.13207723       0.97705693
Ti       4.40324763       5.00953093      10.27075384  F      -0.00090512       0.21254340      -0.29300334
Ti       1.46874549       5.00952404      10.27071044  F       0.00099090       0.21266544      -0.29290277
Ti       4.40532045       1.30066937      10.89191121  F      -0.00600662      -0.06784819      -0.69984177
Ti       1.46671378       1.30069693      10.89191121  F       0.00599237      -0.06799271      -0.69984640
Ti       2.93598188       3.39421117      12.07593820  F       0.00039446       0.01407958       0.06916645
Ti       5.87198138       3.39403890      12.07572120  F      -0.00028878       0.01393436       0.06666117
Ti       2.93603473       6.20921698      12.48390909  F       0.00004851       0.01512677      -0.04080228
Ti       0.00000000       6.20933412      12.48182583  F      -0.00019647       0.01629891      -0.03852554
Ti       1.46830509       1.47166229      13.70647631  F       0.00010290       0.01438134       0.01331167
Ti       4.40370565       1.47166229      13.70651971  F      -0.00015797       0.01461283       0.01290457
Ti       1.46909194       4.42913349      14.31257348  F      -0.00132609      -0.03116880       0.02012530
Ti       4.40290119       4.42912660      14.31257348  F       0.00127890      -0.03094573       0.02020090
Ti       2.93598776       6.58109471      15.48661820  F       0.00028799       0.00287578       0.01271759
Ti       0.00001762       6.58119807      15.48158367  F      -0.00017971       0.00258871       0.01742392
Ti       2.93597601       2.50413841      15.97392641  F       0.00015443      -0.02098202      -0.02764686
Ti       5.87199313       2.50468278      15.97401321  F      -0.00007699      -0.02042296      -0.02630857
Ti       4.41289533       4.65071110      17.13499418  F      -0.00469933       0.01906335       0.01184859
Ti       1.45911542       4.65068353      17.13499418  F       0.00469719       0.01905330       0.01201610
Ti       4.40126877       0.74869610      17.74703731  F      -0.00078488       0.00316677       0.00423481
Ti       1.47074785       0.74870988      17.74703731  F       0.00083328       0.00318251       0.00421499
Ti       0.00003523       2.88542196      18.99651325  F      -0.00006937      -0.00599705      -0.00038722
Ti       2.93608171       2.87836587      19.00970720  F      -0.00003094      -0.00236050      -0.00502048
Ti       0.00000000       5.72240224      19.32783769  F      -0.00013693      -0.00018581      -0.00170953
Ti       2.93601124       5.71250029      19.31169246  F       0.00021457      -0.00077481      -0.00010257
Ti       1.48794106       0.87289422      20.58525604  F      -0.00023633      -0.00063538      -0.00726021
Ti       4.38411666       0.87294934      20.58529944  F       0.00018853      -0.00095130      -0.00772048
Ti       1.41171077       4.20809336      21.16709197  F       0.00616400       0.00110091      -0.00708343
Ti       4.46037044       4.20801756      21.16704856  F      -0.00628346       0.00138826      -0.00687339
Ti       2.93604648       2.24704610      22.55649324  F      -0.00016472       0.00763501       0.00912480
Ti       0.00002936       2.15124458      22.55649324  F       0.00015402       0.01728702       0.00968307
Ti       2.93598776       6.26554163      22.55653664  F       0.00010933      -0.00953340       0.00126996
V        0.00004110       6.22426629      22.55627623  F       0.00003088      -0.01057298       0.00201897
Ti       4.46034108       4.20797622      23.94598131  F      -0.00472426       0.00076659       0.01082155
Ti       1.41169902       4.20802445      23.94598131  F       0.00471443       0.00051769       0.01104900
Ti       4.38418713       0.87276329      24.52764363  F       0.00140500      -0.00262551       0.00482100
Ti       1.48787647       0.87274951      24.52768703  F      -0.00148161      -0.00254060       0.00473524
Ti       2.93601712       5.71242449      25.80151102  F      -0.00012471       0.01931343      -0.02759973
Ti       0.00002349       5.72225754      25.78549599  F       0.00015782       0.02062631      -0.02890711
Ti       2.93602299       2.87826940      26.10349628  F      -0.00015153      -0.01145050       0.01356513
Ti       0.00001174       2.88527036      26.11673363  F       0.00024063      -0.01319785       0.01098591
Ti       4.40132162       0.74855828      27.36633977  F      -0.00092177      -0.00194679       0.02655185
Ti       1.47075372       0.74853072      27.36638317  F       0.00084736      -0.00193874       0.02647849
Ti       4.41281899       4.65062841      27.97873011  F       0.00022258      -0.03094741       0.00454755
Ti       1.45917414       4.65064908      27.97873011  F      -0.00014814      -0.03113835       0.00518857
Ti       0.00000000       2.50455875      29.13979789  F       0.00031969       0.01031063      -0.04116159
Ti       2.93599950       2.50409707      29.13992809  F      -0.00019655       0.01164329      -0.03970768
Ti       0.00002936       6.58126009      29.63240103  F       0.00023594       0.04150387       0.10107662
Ti       2.93603473       6.58119807      29.62740990  F      -0.00020882       0.04286013       0.10443102
Ti       1.46916828       4.42914038      30.80149802  F      -0.00074596      -0.00227006      -0.05108905
Ti       4.40293642       4.42916105      30.80141122  F       0.00042509      -0.00233738      -0.05039512
Ti       1.46820527       1.47174498      31.40776880  F       0.00133118      -0.03513329       0.01304095
Ti       4.40378786       1.47178632      31.40772540  F      -0.00128699      -0.03565449       0.01396762
Ti       2.93600537       6.20932034      32.63042282  F       0.00037823       0.15244526       0.56116086
Ti       5.87196377       6.20933412      32.63254948  F      -0.00028512       0.14987713       0.56138818
Ti       2.93604648       3.39423184      33.03822010  F       0.00058209       0.13426161       0.25615467
Ti       0.00001762       3.39407335      33.03848051  F      -0.00059551       0.13513542       0.25918505
Ti       4.40536743       1.30084853      34.22229050  F      -0.00492406      -0.26447122      -0.17042782
Ti       1.46663157       1.30089676      34.22233390  F       0.00497486      -0.26438010      -0.16998064
Ti       4.40326525       5.00966186      34.84336107  F       0.00079564      -0.01396055      -0.94444596
Ti       1.46878073       5.00962740      34.84331767  F      -0.00085126      -0.01374143      -0.94407584
