64
Lattice="5.088765 0.0 0.0 0.0 9.739025 0.0 0.0 0.0 38.303587" Properties=species:S:1:pos:R:3:move_mask:L:1:forces:R:3 job_name=BondOrder-VacuumGB-T2-Al-Al-35-d-0.63 top_level=BondOrder-VacuumGB solute=Al energy=-477.48851125 stress_kbar_3x3="_JSON [[-19.40547911, -0.81006121, -1.7083365], [-0.81006116, -19.53590008, -1.27973987], [-1.7083365, -1.27973987, -19.94439571]]" pbc="T T T"
Ti       2.52327939       9.26912678      29.94386744  F      -0.88747299       0.03527525      -0.91180480
Ti       5.07388545       4.39976037      29.94555280  F      -0.88995048       0.02671790      -0.92327599
Ti       1.25950496       1.88521229       8.25944077  F      -0.83065673       0.03799919       1.08108763
Ti       3.80357196       6.75578634       8.26775265  F      -0.83375250       0.04025027       1.06003687
Ti       2.72563922       4.06789335       9.04248100  F       0.77986272      -0.60737357       0.55342434
Ti       0.18454915       8.93767854       9.05573404  F       0.77980468      -0.59394357       0.55594011
Ti       1.03999599       6.20859922       9.76458022  F       0.29460997       0.12761196      -0.16775090
Ti       3.57997162       1.33141237       9.76044343  F       0.29096058       0.14466764      -0.17822986
Ti       0.23328425       3.48156509      10.41731165  F      -0.12927872       0.32904313      -0.37436828
Ti       2.77719350       8.35268453      10.42332531  F      -0.12193472       0.32393381      -0.38630265
Ti       1.12652026       0.86260492      11.16335061  F      -0.10604244       0.13679783      -0.43802327
Ti       3.66897921       5.73288681      11.15147650  F      -0.11180436       0.13114262      -0.47628597
Ti       2.77427255       3.09497449      11.82665383  F       0.12678771       0.01083148      -0.17458684
Ti       0.23419005       7.96569463      11.84423517  F       0.12042093       0.01139037      -0.15686818
Ti       3.65365185       0.43517859      12.49826892  F      -0.07275226      -0.01035303      -0.15547864
Ti       1.10631787       5.31090459      12.50524017  F      -0.07288850      -0.00900913      -0.14949568
Ti       2.79150819       7.53621337      13.22691806  F      -0.02406236      -0.00851709      -0.02038403
Ti       0.24554818       2.67011927      13.23664717  F      -0.01472233      -0.00370335      -0.01290070
Ti       3.63227395       4.86862625      13.91576976  F       0.03589883      -0.01389499      -0.01747658
Ti       1.09541264       0.00252241      13.95100906  F       0.03415058      -0.01106066      -0.00844765
Ti       0.25514050       7.07222674      14.63852015  F       0.01522937       0.01467091      -0.04812021
Ti       2.80240833       2.20938547      14.60052299  F       0.00316509       0.02657180      -0.03632318
Ti       1.13963910       4.43694397      15.34211874  F      -0.01907022      -0.00313231      -0.01650264
Ti       3.69107463       9.29711674      15.30871801  F      -0.01844926       0.01165212      -0.00222707
Ti       0.25052499       1.80931606      16.04487465  F      -0.00072004       0.00837867       0.00128096
Ti       2.82614742       6.67016083      16.00779678  F      -0.00901711       0.02015761       0.00489126
Ti       1.13656040       8.84733935      16.70411768  F       0.00657813       0.00862990       0.01429403
Ti       3.66250630       4.01268282      16.65995365  F      -0.01277525       0.00371495       0.01429940
Ti       2.81176657       1.36478801      17.35298045  F       0.01490648      -0.00082694       0.01482349
Ti       0.21506648       6.19879202      17.49298006  F      -0.00272284       0.01236008       0.00832565
Ti       3.73126569       8.41577393      18.13211371  F       0.00351371      -0.01507721       0.01606044
Ti       1.25503193       3.49601780      18.16271828  F       0.00040138      -0.01611822       0.01764337
Ti       5.06160117       0.95854406      18.92170385  F      -0.00123652      -0.00111124      -0.00638869
Ti       2.66297617       5.85313455      18.77197513  F      -0.00267980      -0.01578493       0.00382975
Ti       3.79452922       3.41184341      19.39712797  F      -0.01818164       0.00077341      -0.01235839
Al       1.27146356       8.26419575      19.45335764  F      -0.00130631      -0.00702770      -0.00331360
Ti       2.45641811       1.12430226      20.10248853  F      -0.00110817      -0.00692420      -0.00106507
Ti       4.90930461       5.99501266      20.33058639  F      -0.01322681      -0.00667518       0.00275939
Ti       1.54193142       3.94612632      20.89341930  F       0.00637278       0.00935793      -0.01248497
Ti       4.04637729       8.77822149      20.91927422  F       0.00474925       0.01687045      -0.01142806
Ti       4.80585511       1.80901415      21.57292493  F       0.01242326       0.00469444      -0.00635326
Ti       2.31607506       6.63559703      21.54339287  F       0.01920796      -0.01559871      -0.00329005
Ti       1.37922833       9.30429440      22.23458109  F       0.00673546       0.00508027       0.00859010
Ti       3.93025676       4.40317877      22.38388847  F      -0.00443103       0.01645629      -0.00643514
Ti       4.80785499       7.04690528      23.02555016  F      -0.00502407      -0.00314445       0.00285355
Ti       2.28284542       2.16338806      22.99429444  F      -0.00975704      -0.00562239      -0.00314344
Ti       1.42151088       4.85718289      23.62576737  F      -0.01795082       0.00963033       0.03512108
Ti       3.98270157       9.72257579      23.63388773  F      -0.01147159       0.01770499       0.04233428
Ti       2.28629561       7.50800915      24.36874205  F       0.01117715      -0.03766171      -0.02450989
Ti       4.85029021       2.62310899      24.40681581  F       0.01258117      -0.02934718      -0.02353754
Ti       3.98217234       5.29276079      25.12286307  F      -0.00029455       0.03608788       0.03952958
Ti       1.43990168       0.41982015      25.08498082  F      -0.00495589       0.04496917       0.02975304
Ti       4.83418426       7.96836313      25.77291325  F      -0.02285081      -0.08686607       0.03634068
Ti       2.29890048       3.10168468      25.75050565  F      -0.02302416      -0.09073915       0.04264589
Ti       1.39706445       5.73009171      26.44644352  F       0.04186261       0.02312942       0.18992140
Ti       3.94115689       0.85337233      26.44812888  F       0.04682943       0.02820286       0.19638466
Ti       2.27866246       8.36675742      27.18535802  F      -0.05215361       0.23803557       0.44963121
Ti       4.82679538       3.48767146      27.20064115  F      -0.06778314       0.27652108       0.45743612
Ti       1.48575145       1.35285770      27.81878443  F      -0.11427363       0.25731156       0.66952859
Ti       4.02921288       6.22574964      27.83559971  F      -0.10590138       0.25411217       0.69990975
Ti       4.90271466       8.97077175      28.57761680  F       0.15193862      -0.12157247      -0.14104581
Ti       2.36008270       4.09370177      28.56555117  F       0.16712485      -0.10848113      -0.13097667
Ti       3.79189833       1.89374367      29.33989648  F       0.82260395      -0.44208981      -0.59875738
Ti       1.25040116       6.76869055      29.33821112  F       0.82578743      -0.42907893      -0.60873556
