100
Lattice="4.4265 -2.555641 0.0 3.767997 6.526363 -0.031456 0.0 0.0 61.781652" Properties=species:S:1:pos:R:3:move_mask:L:1:forces:R:3 job_name=BondOrder-VacuumGB-CSL13-V-V-52-d-1.39 top_level=BondOrder-VacuumGB solute=V energy=-761.21190839 stress_kbar_3x3="_JSON [[-36.05200776, -2.4941283, -0.23198965], [-2.4941283, -39.0867622, -0.10393814], [-0.23198966, -0.10393813, -24.48814567]]" pbc="T T T"
Ti       2.47783530      -0.89541714       8.02004228  F       0.10767563      -0.01749860       1.74049125
Ti       5.77149483       1.55398319       8.00443753  F      -0.06945012       0.08184893       1.73896935
Ti       4.99058947      -0.80335039       9.38620324  F       0.42095036      -0.00146079      -0.13971552
Ti       4.59478039       3.77632230       9.37053614  F      -0.21340211       0.36137683      -0.14260216
Ti       7.10402216       3.86272453      10.63305530  F      -0.13958010      -0.05129170      -0.96743400
Ti       3.81088752       1.41322129      10.64878290  F       0.02493347      -0.15123026      -0.96834443
Ti       1.66485318      -0.44127857      10.87762233  F       0.31653826      -0.26252706      -0.11468775
Ti       2.14471184       3.63288801      10.86183144  F      -0.39012326       0.14151580      -0.11582716
Ti       4.72792190       3.65673579      12.16717526  F       0.04509417      -0.12893365      -0.32352424
Ti       4.82009229      -0.74770933      12.18290442  F      -0.13271596      -0.02558551      -0.32514295
Ti       3.44618166       5.87282941      13.26074965  F      -0.08325999       0.03899699       0.03851321
Ti       2.95371054       1.80660597      13.27635280  F       0.07621225      -0.05585674       0.03879307
Ti       2.40930012      -0.95423978      13.75756572  F       0.04402314      -0.04118211       0.01495987
Ti       5.75432823       1.46539846      13.74220847  F      -0.05968161       0.01559506       0.01338802
Ti       4.28399353       3.76205273      14.95963390  F      -0.00655339       0.01928537      -0.02322439
Ti       5.13419597      -1.07949420      14.97511396  F       0.01548062       0.00540257      -0.02291731
Ti       6.92767325       3.59739255      15.86098669  F      -0.00040505      -0.00423384      -0.00750808
Ti       3.66839727       1.12716626      15.87727456  F      -0.00452862      -0.00275483      -0.01495211
Ti       6.37604547       0.88900013      16.61479106  F      -0.00357026      -0.00058130       0.00163611
Ti       1.59853658      -0.70372547      16.63002521  F       0.00182950      -0.00785624       0.00169873
Ti       4.78929658       3.18017989      17.69167886  F      -0.00340962       0.00566376       0.00411191
Ti       4.37816869      -0.93215431      17.70715536  F       0.00861676      -0.00621659       0.00364877
Ti       3.17405968       5.40835961      18.48842693  F      -0.00198522      -0.00164312       0.00072934
Ti       2.68800735       1.33936137      18.50452096  F       0.00034419      -0.00119818       0.00157445
Ti       5.89631870       5.19599086      19.44285862  F       0.00017472      -0.01010082      -0.00367237
Ti       5.56998811       1.03108766      19.46020162  F      -0.00436716      -0.00165625      -0.00523853
Ti       0.58723258       0.90800112      20.38096600  F       0.00083327       0.00422622       0.00047510
Ti       3.85648807       3.37489353      20.36528717  F       0.00401122       0.00439577      -0.00156788
Ti       3.30069313       0.64910169      21.19348645  F       0.00829157       0.00281775       0.00730907
Ti       6.69914686       3.03821661      21.17781913  F      -0.00237538       0.00602822       0.00630818
Ti       5.09092928       5.35489625      22.29129608  F       0.00549366       0.00197757      -0.00165896
Ti       6.11707137       0.41318022      22.30640035  F      -0.00399570       0.00566075      -0.00016207
Ti       4.53864878       2.63345378      22.98015468  F       0.00808761      -0.00369623       0.00114597
Ti       4.03602812      -1.42305492      22.99747378  F       0.00082118       0.00606382       0.00615143
Ti       7.16096809       2.51017270      23.92600882  F       0.00132025       0.00444503      -0.00568052
Ti       2.61624438       0.78369245      23.94043749  F       0.00380813       0.00018951      -0.00333115
Ti       5.75117949       4.79403419      25.16652225  F       0.00367369       0.01061094      -0.00464398
Ti       5.30896444       0.70023119      25.18459148  F      -0.00003981       0.00776694      -0.00520238
Ti       3.62192390       2.94549298      25.58318313  F       0.00525665      -0.00789505       0.00179203
Ti       0.34188742       0.48479886      25.59824424  F      -0.00540070       0.00199206      -0.00380704
Ti       2.89112803       0.51095099      26.73992924  F       0.00219074       0.01197267      -0.00945194
Ti       6.80028789       2.60733283      26.72789937  F       0.00602920       0.00557437      -0.00488080
Ti       4.94163099       5.20391694      28.04489019  F       0.00204627       0.01152658      -0.00601639
Ti       1.64831603       2.75391738      28.05135270  F       0.00245314       0.00209695      -0.00733584
Ti       4.39782928       2.41818063      28.22828069  F      -0.00550229       0.00113714      -0.00122412
Ti       3.93888851      -1.65569763      28.23587169  F       0.00748724      -0.00693625      -0.00142465
Ti       6.90448548       2.51971138      29.50125344  F       0.00703310       0.00539879       0.00797434
Ti       2.76462237       0.55750074      29.52718066  F      -0.00201257       0.00464734      -0.00523210
Ti       3.56786081       2.85980611      30.91357061  F       0.00477942       0.00610909       0.00731863
Ti       0.34246424       0.43139345      30.93247858  F      -0.01122180       0.00087575       0.01125814
Ti       5.75941801       4.75323476      30.90746543  F       0.00426029       0.00421713       0.01148942
Ti       5.22041322       0.65003231      30.92144592  F       0.00301831       0.00889730       0.00608583
V        2.76609021       0.55808038      32.25743027  F       0.00258194       0.00676837       0.00521942
Ti       6.89984449       2.52411382      32.25732670  F       0.01282028       0.00403077      -0.01465760
Ti       3.91177956      -1.59844288      33.51731117  F       0.01552874       0.00084177      -0.00611537
Ti       4.39903787       2.38712220      33.51510818  F      -0.01916140       0.01097118       0.00280033
Ti       1.67363506       2.71906771      33.67287657  F       0.00960218      -0.00433317      -0.00259454
Ti       4.93967816       5.25032866      33.66296458  F      -0.00636359       0.00258925      -0.00926099
Ti       2.89147560       0.53376662      35.03149978  F       0.00792770       0.00873688       0.00549597
Ti       6.78984192       2.63926912      35.02156003  F       0.00179118       0.00742711       0.01805996
Ti       0.34076041       0.53538057      36.16019319  F      -0.00581962      -0.00295469      -0.00139176
Ti       3.61459869       2.97433963      36.13638881  F       0.00990698      -0.00749040      -0.01786199
Ti       5.31679781       0.73410101      36.57056403  F      -0.00353324       0.01236119       0.00022288
Ti       5.73498755       4.83888603      36.55701531  F       0.00692470       0.00759069       0.00159935
Ti       7.19484075       2.54055604      37.80470573  F       0.00110746       0.01079661      -0.01087268
Ti       2.60464916       0.84037019      37.82531240  F      -0.00088425      -0.00280186       0.00160638
Ti       4.56224253       2.70195096      38.72917478  F       0.00915800      -0.00378187       0.00540813
Ti       4.05202764      -1.36481836      38.74864739  F       0.00308599      -0.00331590      -0.00965032
Ti       6.12304985       0.47807262      39.45303299  F      -0.00225999       0.00069472       0.00664795
Ti       5.11576552       5.40818757      39.44132929  F       0.00727417       0.00745086       0.00579967
Ti       3.35038037       0.70383037      40.55506040  F      -0.00500253       0.00439893       0.00661820
Ti       6.70961876       3.11191411      40.53823250  F      -0.00377756       0.00603208       0.00565086
Ti       3.89472516       3.44341196      41.34588513  F       0.00168910       0.00574337       0.00844057
Ti       0.61619049       0.99259752      41.36133987  F       0.00636131       0.00385462       0.00806669
Ti       5.92884929       5.27015343      42.29833589  F      -0.00424467      -0.00990278      -0.00103313
Ti       5.60936996       1.10540191      42.31387237  F      -0.00330085      -0.00976547       0.00511563
Ti       3.22448307       5.48662807      43.20446824  F       0.00305720      -0.00608128       0.01225389
Ti       2.72281182       1.42065187      43.22256096  F      -0.00628764      -0.00125490       0.00517673
Ti       4.79957463       3.27199336      44.03119146  F       0.00255546       0.01089863       0.00692035
Ti       4.44324667      -0.87466845      44.04692481  F       0.00597883       0.00600219       0.00500330
Ti       6.41706358       0.94478331      45.17443163  F      -0.00880486       0.00631128      -0.01255888
Ti       1.62633599      -0.63865713      45.19083366  F       0.00148591      -0.00935510      -0.01160124
Ti       6.97513214       3.67021968      45.80816812  F      -0.01345614      -0.01221127      -0.01347847
Ti       3.70774212       1.20918557      45.82388366  F       0.00001329      -0.02029654      -0.01209135
Ti       4.36978868       3.77562445      46.78301117  F       0.01779328       0.01035905      -0.01999620
Ti       5.10166482      -0.99688450      46.79799436  F      -0.00912700       0.01703746      -0.02026708
Ti       5.75422190       1.49663846      48.06223592  F       0.04636737      -0.02662007      -0.00388356
Ti       2.43702971      -0.93892293      48.07783976  F      -0.04881925       0.02494146      -0.00778603
Ti       3.46225943       5.90834386      48.40576005  F      -0.01832886      -0.07062014       0.01919368
Ti       2.97638698       1.83704020      48.42099710  F      -0.05485445      -0.05064141       0.02269080
Ti       4.68822693       3.69355050      49.58685066  F       0.01832481       0.02444275       0.39055389
Ti       4.87180553      -0.76315578      49.60319579  F       0.01680323       0.02544683       0.38561835
Ti       2.14686213       3.63534482      50.93049382  F       0.15887070      -0.02962491       0.47561938
Ti       1.66650689      -0.43805647      50.94665367  F      -0.10650761       0.12129675       0.47427502
Ti       7.10846797       3.86446514      51.05177032  F       0.48958522      -0.13263153       0.16743657
Ti       3.81065463       1.41783719      51.06768263  F      -0.36058775       0.36302951       0.16846248
Ti       4.61735916       3.76376504      52.37575386  F       0.14204104      -0.22774660       0.15691640
Ti       4.96856003      -0.79041414      52.39173082  F      -0.26610422       0.01373018       0.15575064
Ti       3.48482772       5.96957536      53.73922519  F       0.04651045      -0.08899354      -1.39416895
Ti       3.01871959       1.88791369      53.75495269  F      -0.09710828      -0.00133894      -1.39276470
