100
Lattice="4.4265 -2.555641 0.0 3.767997 6.526363 -0.031456 0.0 0.0 61.781652" Properties=species:S:1:pos:R:3:move_mask:L:1:forces:R:3 job_name=BondOrder-VacuumGB-CSL13-V-V-49-d-0.01 top_level=BondOrder-VacuumGB solute=V energy=-761.09528599 stress_kbar_3x3="_JSON [[-36.83978383, -2.1977575, -0.01632275], [-2.19775753, -38.31472315, -0.01206865], [-0.01632278, -0.01206869, -24.3967819]]" pbc="T T T"
Ti       2.46275313      -0.91728764       8.01873184  F       0.10626938      -0.02261140       1.74530827
Ti       5.75937589       1.53061072       8.00281742  F      -0.07224834       0.08344469       1.74526227
Ti       4.97340099      -0.82360452       9.38693015  F       0.41711213       0.00530427      -0.13291532
Ti       4.58454795       3.75138206       9.37132725  F      -0.20355506       0.36003287      -0.13385029
Ti       7.09354670       3.84072658      10.64576014  F      -0.14470017      -0.04100560      -0.95779637
Ti       3.79625631       1.39337902      10.66241534  F       0.03671085      -0.14282254      -0.95742540
Ti       1.65266338      -0.46186036      10.87654832  F       0.31262562      -0.27855048      -0.12874113
Ti       2.13235761       3.61240987      10.86057206  F      -0.39787910       0.13195066      -0.12782864
Ti       4.70660439       3.64593143      12.16855622  F       0.04820407      -0.11960781      -0.33421891
Ti       4.82143744      -0.77146746      12.18372888  F      -0.12975681      -0.01335037      -0.33401933
Ti       3.43990570       5.86544503      13.28309262  F      -0.08296238       0.03426828       0.05004917
Ti       2.94823940       1.79712969      13.29925768  F       0.07133517      -0.05220520       0.05091283
Ti       2.40697550      -0.96739489      13.75131640  F       0.04009174      -0.03808034       0.01353074
Ti       5.74212495       1.45752041      13.73577535  F      -0.05612495       0.01361922       0.01363045
Ti       4.29624404       3.75208219      14.96520473  F       0.00027901       0.01595984      -0.02552883
Ti       5.11370926      -1.07011140      14.98235125  F       0.01373158       0.00853350      -0.03063062
Ti       6.92962422       3.60610791      15.88486061  F      -0.00060599      -0.00471439      -0.01606753
Ti       3.67055157       1.13775695      15.90175910  F      -0.00181919      -0.00270237      -0.01674150
Ti       6.37843628       0.89334559      16.61038386  F      -0.00487174       0.00130564       0.00093863
Ti       1.59619016      -0.69593141      16.62444159  F       0.00392677      -0.00653013       0.00055490
Ti       4.78282738       3.19996973      17.70385359  F      -0.00496102       0.00084097       0.00526042
Ti       4.38973774      -0.92518056      17.72181004  F       0.00831239      -0.00112649       0.00007404
Ti       3.18324679       5.42402681      18.50676205  F      -0.00799507       0.00158380      -0.00372215
Ti       2.68830620       1.35863739      18.52304694  F      -0.00046229      -0.00630154      -0.00283285
Ti       5.89722548       5.21378466      19.43964154  F       0.00101973      -0.00718063      -0.00957306
Ti       5.57432787       1.04797845      19.45630104  F      -0.01093589      -0.00103179      -0.00810941
Ti       0.58835913       0.93270780      20.40404245  F       0.00082239      -0.00440807      -0.00419643
Ti       3.86314450       3.39264835      20.38355824  F       0.00383162       0.00249310      -0.00440878
Ti       3.31256332       0.66069629      21.20435512  F       0.00664607       0.00311469       0.00447455
Ti       6.69080017       3.06225789      21.18812896  F       0.00329314       0.00804748       0.00328999
Ti       5.09435120       5.36525978      22.28532043  F       0.00666883       0.00344582      -0.00245482
Ti       6.11316787       0.43162799      22.29985473  F       0.00725516       0.00344973      -0.00480777
Ti       4.54044674       2.65024574      22.99948967  F       0.00322304       0.00932170       0.00547451
Ti       4.03737428      -1.39874479      23.02679116  F       0.00737903       0.00345218       0.00452528
Ti       7.17630647       2.51628421      23.92737569  F       0.00655122      -0.00042519       0.00341060
Ti       2.59330869       0.80327800      23.94158841  F      -0.00034218       0.00923309      -0.00028388
Ti       5.73782419       4.80192761      25.14940808  F       0.00413288      -0.00189697       0.00405019
Ti       5.31570583       0.70628522      25.17411442  F       0.00053800       0.00211751      -0.00715828
Ti       3.62135239       2.95524701      25.60001546  F      -0.00377329       0.00573499      -0.00616958
Ti       0.34414118       0.49758589      25.62852811  F      -0.00047573       0.00735362       0.00464364
Ti       2.90784924       0.49547548      26.72635832  F       0.00225206       0.01153802      -0.00805440
Ti       6.78881998       2.62177676      26.72577051  F       0.00169516       0.00046057      -0.00481325
Ti       4.93623902       5.19498668      28.03443084  F       0.00648214       0.00860993      -0.00553661
Ti       1.64716538       2.75955044      28.02322409  F       0.00074975      -0.00425142       0.00160916
Ti       4.39740016       2.41813251      28.21728462  F       0.00305768       0.00359593      -0.00318645
Ti       3.93401346      -1.64923696      28.29109131  F      -0.01285401      -0.00766610      -0.00377890
Ti       6.92527025       2.52271322      29.51133140  F      -0.00156408      -0.00383055      -0.00070703
Ti       2.71426657       0.57118886      29.50647764  F       0.00322737      -0.00315522       0.00629862
Ti       3.62986133       2.84912354      30.86615508  F      -0.01404594      -0.00628194       0.00046956
V        0.27107730       0.39499721      30.88376629  F       0.01294554      -0.00099015       0.00018711
Ti       5.75083434       4.75357858      30.87127805  F       0.00346015       0.00627717       0.00125679
Ti       5.24021149       0.55321954      30.88925742  F      -0.00258117       0.00763365       0.00091151
Ti       2.70451575       0.58014259      32.26773478  F       0.00364240      -0.00410133      -0.00707382
Ti       6.93683724       2.51690520      32.23077123  F      -0.00083735      -0.00441253       0.00161160
Ti       3.93988546      -1.63850411      33.46624212  F      -0.01142778      -0.00968852       0.00383974
Ti       4.40476244       2.42533349      33.50599976  F       0.00362610       0.00336737       0.00108034
Ti       1.65130473       2.76896896      33.75793969  F      -0.00084104       0.00177776      -0.00125536
Ti       4.94719009       5.19942822      33.71082833  F       0.00257379       0.00995103       0.00616970
Ti       2.94628011       0.49370187      35.05543972  F       0.00628235       0.01046747       0.00330648
Ti       6.77271301       2.65071612      35.02211044  F       0.00174668       0.00120449       0.00374687
Ti       0.36931662       0.52870928      36.10900250  F      -0.00001114       0.01004024      -0.00523552
Ti       3.64409606       2.99294326      36.10784044  F      -0.00312878       0.00557961       0.00544175
Ti       5.35034828       0.72605170      36.60950733  F       0.00104107       0.00277807       0.00678269
Ti       5.74520727       4.83902473      36.60302081  F       0.00566842       0.00086193      -0.00826324
Ti       7.23936153       2.54358536      37.81170675  F       0.00608505      -0.00018543      -0.00083084
Ti       2.58482620       0.87048908      37.82790151  F       0.00103188       0.01249522       0.00366590
Ti       4.58095078       2.71662867      38.70196053  F       0.00119125       0.00914211      -0.00128389
Ti       4.08099778      -1.32660101      38.70371886  F       0.00374671       0.00268775       0.00015621
Ti       6.13792192       0.50032546      39.47924049  F       0.00861783      -0.00224782       0.00147768
Ti       5.14377980       5.41782310      39.45964692  F       0.00677097       0.00194869       0.00357650
Ti       3.37473598       0.71847594      40.54513334  F       0.00247626       0.00305340      -0.00359564
Ti       6.70976653       3.14725389      40.53001105  F       0.00420588       0.00538395      -0.00186053
Ti       3.92205075       3.46798585      41.32633983  F       0.00219439      -0.00230556       0.00553745
Ti       0.62423807       1.01713714      41.33720130  F       0.00064918      -0.00277968       0.00194141
Ti       2.17052945      -1.23408139      42.34587849  F       0.00042574      -0.01000890       0.00220013
Ti       5.61975152       1.12208504      42.32750593  F      -0.01227138      -0.00538512       0.00126620
Ti       3.23637572       5.50294349      43.18523213  F      -0.00423765       0.00401378       0.01169475
Ti       2.73090524       1.44801052      43.19884458  F      -0.00119085      -0.00614645       0.01001166
Ti       4.78923459       3.29281719      44.02057310  F       0.00527380       0.00698564       0.00969221
Ti       4.46854420      -0.87435907      44.03402031  F       0.00498656       0.01135139       0.01634945
Ti       6.41849363       0.94407079      45.18382204  F      -0.00418527       0.00152903      -0.00737877
Ti       1.61792038      -0.63583459      45.20220885  F       0.00314275      -0.00246369      -0.00830322
Ti       6.97411550       3.67768978      45.78441908  F      -0.00404403      -0.01109352      -0.00734309
Ti       3.70794446       1.21160099      45.79829690  F      -0.00457862      -0.01233286      -0.00683800
Ti       4.37854516       3.75891716      46.78225013  F       0.01950896       0.00391369      -0.01238141
Ti       5.07773039      -0.99452624      46.79686194  F      -0.00628505       0.01947282      -0.00869010
Ti       5.73955161       1.48435453      48.06756239  F       0.04927153      -0.03606087      -0.00382628
Ti       2.42999044      -0.95531678      48.08378297  F      -0.05539231       0.02502874      -0.00483506
Ti       3.45018544       5.89482200      48.38760855  F      -0.00775483      -0.07282209       0.01114201
Ti       2.96759130       1.82135585      48.40259944  F      -0.05741843      -0.03595945       0.01213246
Ti       4.67033641       3.67794817      49.58774756  F       0.00356028       0.03025529       0.37957820
Ti       4.86674188      -0.78620720      49.60378393  F       0.02278464       0.02373017       0.37985098
Ti       2.13249266       3.61452475      50.93078442  F       0.15647938      -0.02206248       0.48885482
Ti       1.65422443      -0.46057747      50.94632824  F      -0.09994576       0.12547661       0.49211584
Ti       7.09723708       3.84282502      51.04476710  F       0.48115841      -0.13247148       0.16993473
Ti       3.79569080       1.39755172      51.05932310  F      -0.35321546       0.35622844       0.17273000
Ti       4.60455759       3.73962934      52.37444685  F       0.14525886      -0.22798353       0.15572320
Ti       4.95335384      -0.81197808      52.39023418  F      -0.26796720       0.01448882       0.15651189
Ti       3.46914746       5.94864190      53.74019853  F       0.04818627      -0.08494885      -1.40900938
Ti       3.00735096       1.86378606      53.75599036  F      -0.09616972       0.00025041      -1.41068437
