64
Lattice="5.871999 0.0 0.0 0.0 6.890708 0.0 0.0 0.0 43.401158" Properties=species:S:1:pos:R:3:move_mask:L:1:forces:R:3 job_name=BondOrder-VacuumGB-T1m-V-V-38-d-2.03 top_level=BondOrder-VacuumGB solute=V energy=-485.95964485 stress_kbar_3x3="_JSON [[-18.80809271, 0.00037543, 9.071e-05], [0.00037544, -26.912896, -1.29943634], [9.07e-05, -1.29943632, -19.68601011]]" pbc="T T T"
Ti       2.92914101       0.10114870      34.53664508  F       0.01686445      -0.28375583      -0.20690132
Ti       2.93478987       2.93471808      34.53234837  F      -0.00207476       0.12496659      -0.98588088
Ti       0.00690547       0.10116248      34.53660168  F      -0.01684907      -0.28372285      -0.20648559
Ti       0.00128010       2.93474565      34.53234837  F       0.00209878       0.12532253      -0.98556243
Ti       4.40402861       5.02749501       8.55024513  F      -0.00010864      -0.01140397       0.94323833
Ti       1.46801149       5.02668191       8.54855249  F       0.00008159      -0.00797599       0.96103265
Ti       4.40404035       1.31981176       9.16875503  F      -0.00010861      -0.25479950       0.18936922
Ti       1.46801149       1.32151376       9.17261774  F       0.00008088      -0.26578027       0.16297253
Ti       2.93716803       3.41362918      10.35651453  F      -0.00359162       0.13543704      -0.26725949
Ti       5.87087745       3.41364296      10.35647112  F       0.00355002       0.13523193      -0.26723494
Ti       2.93576462       6.22860054      10.76327018  F       0.00017095       0.15276928      -0.54708326
Ti       0.00026424       6.22860054      10.76327018  F      -0.00013686       0.15292202      -0.54695340
Ti       1.46802324       1.49699942      11.98939629  F      -0.00012102      -0.02222911      -0.00771481
Ti       4.40402274       1.49557305      11.99052472  F       0.00011410      -0.02341210      -0.00317956
Ti       1.46802324       4.44400364      12.59831454  F      -0.00008030      -0.00405914       0.06068574
Ti       4.40402274       4.44370045      12.59762012  F       0.00008968      -0.00477613       0.05996385
Ti       2.93228252       6.60449555      13.75699525  F       0.00553231       0.05084905      -0.10409334
Ti       0.00376395       6.60448866      13.75699525  F      -0.00554937       0.05100254      -0.10406325
Ti       2.93253502       2.53015084      14.26869491  F       0.00197023       0.02084312       0.04561594
Ti       0.00351146       2.53014394      14.26869491  F      -0.00199253       0.02072751       0.04545388
Ti       4.40401099       4.69696153      15.43340838  F       0.00008932      -0.02208181      -0.00928774
Ti       1.46801737       4.70494786      15.43418960  F      -0.00006806      -0.02577222      -0.00621609
Ti       4.40400512       0.73708525      16.02184128  F       0.00004678       0.00387625      -0.03020890
Ti       1.46802324       0.73498359      16.05374113  F      -0.00004680       0.00322344      -0.04294190
Ti       0.00198474       2.90507426      17.22895769  F       0.00183393      -0.00044714      -0.01045852
Ti       2.93402651       2.90506048      17.22895769  F      -0.00183752      -0.00039436      -0.01021677
Ti       0.01084558       5.73465392      17.70181331  F      -0.00418236       0.02644705       0.02634544
Ti       2.92517741       5.73464703      17.70181331  F       0.00418336       0.02631163       0.02648502
Ti       1.46802324       0.98179497      18.89473754  F       0.00022478      -0.00622982       0.00094387
Ti       4.40398751       0.96722801      18.84465260  F      -0.00019313      -0.00212232       0.01709658
Ti       1.46792929       4.05780013      19.47323157  F       0.00012174       0.00163844      -0.00826747
Ti       4.40406384       4.04738138      19.45565410  F      -0.00009194       0.00469006      -0.00464077
Ti       2.99187157       2.11708045      21.00498864  F      -0.01626364       0.02127377      -0.01656422
Ti       5.81608583       2.11695642      21.00507544  F       0.01607054       0.02126472      -0.01638091
Ti       2.95244697       6.18243280      20.83832819  F      -0.00455918      -0.00313015      -0.00529345
Ti       5.85555153       6.18245347      20.83832819  F       0.00459038      -0.00320524      -0.00516287
Ti       4.40412843       4.14853008      22.24491632  F       0.00000855       0.00124256       0.01248508
Ti       1.46788231       4.15109342      22.26440344  F      -0.00004918       0.00518166       0.00877547
V        4.40351775       0.81150490      22.86776634  F       0.00010299      -0.00838673      -0.00903427
Ti       1.46829922       0.84936245      22.88916311  F       0.00047182      -0.01507730       0.00203683
Ti       2.96738533       5.71307222      24.03846918  F      -0.00432730      -0.01540629       0.00658328
Ti       5.84059555       5.71330651      24.03838238  F       0.00424686      -0.01538694       0.00679591
Ti       2.94595841       2.84055656      24.37482815  F       0.00221975      -0.00963589      -0.00591453
Ti       5.86208119       2.84051521      24.37482815  F      -0.00231353      -0.00961790      -0.00587230
Ti       4.40399338       0.71619263      25.62625714  F       0.00006980      -0.00396392       0.00071707
Ti       1.46808783       0.73921448      25.67165475  F      -0.00016393      -0.00739106      -0.00101336
Ti       4.40406384       4.64978774      26.24884675  F       0.00015288       0.01004608      -0.01591618
Ti       1.46798213       4.63796329      26.22649516  F      -0.00010567       0.00637287      -0.01601664
Ti       5.86811761       2.51433666      27.40145131  F       0.00152985      -0.03112420       0.01520504
Ti       2.93994548       2.51435733      27.40145131  F      -0.00150899      -0.03117354       0.01522277
Ti       5.86572183       6.58258310      27.90881084  F      -0.00145158      -0.00038108      -0.01972696
Ti       2.94232364       6.58256932      27.90876744  F       0.00150981      -0.00036716      -0.01961277
Ti       1.46801737       4.43525244      29.06245702  F       0.00020695      -0.04515331      -0.01004540
Ti       4.40402274       4.43047029      29.08146673  F      -0.00014957      -0.04111400      -0.02128020
Ti       1.46804085       1.48572622      29.66712196  F       0.00003297       0.01105700      -0.00053330
Ti       4.40402861       1.48659445      29.68283318  F      -0.00007994       0.01433407      -0.01202517
Ti       2.93459609       6.22605787      30.90179810  F      -0.00517230       0.00439642       0.03411998
Ti       0.00149736       6.22605787      30.90179810  F       0.00513398       0.00481070       0.03408417
Ti       2.93538294       3.40785477      31.31215605  F      -0.00625701       0.01356588      -0.05517777
Ti       0.00064005       3.40786166      31.31215605  F       0.00630089       0.01377853      -0.05519244
Ti       4.40404035       1.31431297      32.50291022  F      -0.00074989      -0.06350594       0.70276755
Ti       1.46802324       1.31578069      32.48962947  F       0.00056470      -0.06732788       0.70824745
Ti       4.40403448       5.02735720      33.11668940  F      -0.00048345       0.21222196       0.28452971
Ti       1.46803498       5.02948642      33.11490995  F       0.00040217       0.21450640       0.27463982
