64
Lattice="5.088765 0.0 0.0 0.0 9.739025 0.0 0.0 0.0 38.303587" Properties=species:S:1:pos:R:3:move_mask:L:1:forces:R:3 job_name=BondOrder-VacuumGB-T2-Al-Al-49-d-5.58 top_level=BondOrder-VacuumGB solute=Al energy=-476.49961846 stress_kbar_3x3="_JSON [[-17.51735408, 0.31607737, 0.69992588], [0.31607739, -19.80375057, 2.98508804], [0.69992589, 2.98508802, -19.09686956]]" pbc="T T T"
Ti       2.60169217       9.31826990       8.45226103  F       0.68260066       0.09226387       0.85089387
Ti       0.05314197       4.44360546       8.43670977  F       0.66717781       0.06977378       0.90431328
Ti       1.33798898       2.02026335       8.92707229  F      -0.70957627      -0.24469109       0.44123560
Ti       3.87197005       6.88312409       8.91592595  F      -0.69153747      -0.24064476       0.45550589
Ti       2.62205741       4.29123841       9.65001419  F      -0.03191114      -0.30897799       0.23209466
Ti       0.08439208       9.15234613       9.64580080  F      -0.07989669      -0.30127112       0.22597708
Ti       0.98542916       6.33794321      10.48951391  F       0.02033961       0.20611395      -0.76379978
Ti       3.54091535       1.46887871      10.49663837  F       0.02743450       0.19024196      -0.76927947
Ti       0.28988150       3.53803196      11.11650532  F       0.14276148       0.22728212      -0.40163668
Ti       2.83461512       8.40182765      11.11213871  F       0.15202746       0.24154901      -0.39261572
Ti       1.12175718       0.84720752      11.85070848  F      -0.08921398       0.06238527      -0.18912538
Ti       3.66247068       5.72031372      11.85744991  F      -0.08286384       0.02740490      -0.20054111
Ti       2.75192778       3.12001353      12.56353823  F       0.00835771      -0.14594712       0.03357794
Ti       0.20706694       7.99248669      12.56319350  F       0.01526001      -0.15112313       0.04282970
Ti       3.61896683       0.44004811      13.19033813  F       0.00038130       0.07540528      -0.01578786
Ti       1.07696587       5.31220962      13.18784840  F      -0.00724772       0.05399522      -0.00869877
Ti       2.74848269       7.52358185      13.92431146  F      -0.01142182      -0.03628524       0.06643190
Ti       0.20362184       2.65395249      13.92389012  F      -0.00355143      -0.03559029       0.05589789
Ti       3.61925689       4.86848990      14.65832310  F      -0.00459104      -0.00596214      -0.00946640
Ti       1.07685901       9.73556765      14.66108096  F      -0.00779813       0.00797113      -0.01791913
Ti       0.20714836       7.05485232      15.28542943  F      -0.00564123       0.00592828       0.00183944
Ti       2.75212115       2.18868031      15.28489318  F      -0.01235874       0.00420851      -0.00616322
Ti       1.12147730       4.46145709      15.99806766  F      -0.00794400      -0.01023930      -0.03257410
Ti       3.66241979       9.32749276      15.99098150  F      -0.00752297      -0.00060726      -0.00824313
Ti       0.29016647       1.77072031      16.73223252  F      -0.01128415      -0.00129035      -0.00573367
Ti       2.83455915       6.64595936      16.73679064  F      -0.00057363       0.00077532      -0.02487222
Ti       0.98509839       8.70901598      17.35918563  F      -0.01497745       0.02026414      -0.00372069
Ti       3.54035559       3.83891914      17.35209946  F      -0.00099846       0.01695831      -0.00300112
Ti       2.62225078       1.01689056      18.19834061  F       0.01531871       0.01348893       0.00266125
Ti       0.08423942       5.89441827      18.20320517  F      -0.00161984       0.01533260       0.00795360
Ti       3.87157821       8.16388379      18.93315663  F       0.03441894      -0.00673227      -0.01617466
Ti       1.33767857       3.28748580      18.92197198  F       0.01125742      -0.00078018       0.00578884
Ti       0.05347783       0.86400734      19.41244941  F       0.00150740       0.00367402       0.00179689
Ti       2.60150389       5.72884511      19.39655342  F      -0.00371553      -0.01822063       0.00092942
Ti       3.89639103       3.44159613      20.09846665  F       0.00130501      -0.02841807      -0.00273834
Ti       1.33139394       8.30381410      20.09517254  F      -0.02618526      -0.01460549       0.00519567
Ti       2.31670098       1.33572676      20.96382129  F       0.00574337       0.00284482      -0.00323590
Ti       4.83215894       6.16981842      20.97136710  F       0.00299149      -0.00671047       0.00590565
Ti       1.54575817       4.07863550      21.57778949  F       0.01224644      -0.01124907      -0.00304256
Ti       4.07332230       8.92917638      21.59674976  F       0.03060297      -0.01008299       0.00767965
Ti       4.92968512       1.88557263      22.30306791  F      -0.00635318       0.00417635      -0.01618572
Ti       2.36706448       6.74004808      22.29027451  F      -0.00055713       0.02340855      -0.01406846
Ti       1.43636499       9.30041827      22.98839568  F       0.00323094      -0.01660192      -0.00421564
Ti       3.91767224       4.44201800      23.04964312  F       0.03070982       0.00357255       0.01063887
Ti       4.85263613       7.07428167      23.68663177  F       0.00315606       0.01017625       0.03130948
Ti       2.28370542       2.20856739      23.71022678  F      -0.02902582       0.03490464       0.00953538
Ti       1.38527887       4.86600645      24.32837007  F      -0.03591353      -0.00875267       0.01290858
Ti       4.00659332       0.00462604      24.35801705  F      -0.03395822       0.02261616       0.00257633
Ti       2.30584155       7.52280273      25.07620930  F       0.04541478      -0.02715620       0.01968346
Al       4.82304496       2.65276432      25.07636252  F      -0.00054406       0.02419610      -0.00242671
Ti       4.00687829       5.30189599      25.79463138  F       0.04706314      -0.05601500       0.16763378
Ti       1.38493284       0.44054480      25.82450818  F       0.04738571       0.00560902       0.19996447
Ti       4.85275317       7.97170361      26.46517397  F      -0.08857707      -0.01180845       0.12060562
Ti       2.28400057       3.09799359      26.44219182  F      -0.07118720      -0.03635459       0.10829282
Ti       1.43669576       5.74583971      27.16363988  F       0.16293846       0.06541985       0.55307148
Ti       3.91799793       0.86460142      27.10266057  F       0.09938073       0.06091305       0.41077479
Ti       2.36703904       8.30557687      27.86252713  F      -0.01630377       0.28402199       0.33169893
Ti       4.93003115       3.42106627      27.84912087  F      -0.00521732       0.26117682       0.33340022
Ti       1.54603296       1.22872409      28.57459081  F      -0.23615991       0.33157506       0.27273968
Ti       4.07401437       6.11651674      28.55559223  F      -0.22923046       0.30320062       0.22103314
Ti       4.83292734       8.87690703      29.18112811  F      -0.58779940      -0.53527689      -0.39903046
Ti       2.31683328       3.97234378      29.18832919  F      -0.59942753      -0.59713812      -0.37866580
Ti       3.89665056       1.86638675      30.05402856  F       0.73373508       0.07410816      -1.19002280
Ti       1.33163820       6.74265813      30.05739927  F       0.74793840       0.02159617      -1.27138974
