64
Lattice="5.872 0.0 0.0 0.0 6.890708 0.0 0.0 0.0 43.394398" Properties=species:S:1:pos:R:3:move_mask:L:1:forces:R:3 job_name=BondOrder-VacuumGB-T1g-Al-Al-45-d-5.32 top_level=BondOrder-VacuumGB solute=Al energy=-482.10133117 stress_kbar_3x3="_JSON [[-18.01149212, -0.00019771, 0.00034948], [-0.0001977, -28.05719943, -1.21105699], [0.0003495, -1.21105699, -16.28449153]]" pbc="T T T"
Ti       4.40004227       5.21006432      34.65381157  F       0.00396072      -0.30510735      -0.45768537
Ti       1.47193424       5.21000919      34.65381157  F      -0.00387189      -0.30472340      -0.45759122
Ti       5.87195302       3.18864756       8.54739457  F       0.00000241       0.16659411       0.92200666
Ti       2.93609395       3.18254929       8.53932322  F      -0.00027226       0.17574847       0.96575897
Ti       0.00006459       6.63483534       9.16298750  F      -0.00050148      -0.20254224       0.11483548
Ti       2.93590605       6.63737801       9.16220640  F       0.00059682      -0.21189695       0.11352262
Ti       4.40469290       1.76833483      10.45075966  F      -0.01072118       0.03533135      -0.51348218
Ti       1.46726013       1.76836239      10.45071626  F       0.01077185       0.03549698      -0.51342012
Ti       1.46771814       4.59830726      10.66339221  F       0.00310681       0.10929693      -0.35382138
Ti       4.40422314       4.59831415      10.66339221  F      -0.00303133       0.10936135      -0.35374754
Ti       5.87197651       6.72506916      11.97811229  F      -0.00011006      -0.10441379       0.01484962
Ti       2.93593541       6.72457992      11.97681045  F       0.00004928      -0.10251783       0.01450441
Ti       2.93595890       2.87694639      12.58489615  F      -0.00002781      -0.06011607       0.09835546
Ti       5.87191779       2.87811781      12.58706587  F       0.00014362      -0.06692069       0.10106269
Ti       4.40378861       5.00597533      13.74356997  F       0.00213639       0.06262136      -0.08595763
Ti       1.46809395       5.00597533      13.74356997  F      -0.00210046       0.06243198      -0.08598955
Ti       4.40427598       0.93366337      14.22077817  F      -0.00021421       0.01243173       0.03408269
Ti       1.46757722       0.93365648      14.22082156  F       0.00025659       0.01250437       0.03396739
Ti       2.93596477       3.09283227      15.39984736  F      -0.00001555      -0.02493720      -0.02980200
Ti       5.87194128       3.09048254      15.40479432  F       0.00003210      -0.02232076      -0.03051143
Ti       2.93595302       6.02720582      16.00033904  F      -0.00001891      -0.00019626      -0.05111412
Ti       5.87194715       6.02631003      16.00407095  F       0.00022913      -0.00255965      -0.04098809
Ti       4.40027715       1.29463311      17.18713243  F       0.00009086       0.00232402       0.00182113
Ti       1.47174046       1.29462622      17.18717582  F      -0.00014706       0.00241741       0.00168449
Ti       4.40297827       4.11025220      17.66047852  F       0.00224264       0.01214260       0.02809104
Ti       1.46896888       4.11025220      17.66043513  F      -0.00218889       0.01205753       0.02820072
Ti       2.93600587       6.24447673      18.81455254  F       0.00006814      -0.00657416      -0.00238702
Ti       0.00005285       6.23983929      18.82158243  F      -0.00011231      -0.00356300       0.00071797
Ti       2.93607046       2.39326692      19.44385810  F       0.00000522       0.00526967      -0.00608143
Ti       0.00002349       2.39292239      19.41439330  F      -0.00003367       0.00404902      -0.01299113
Ti       1.47611510       4.52957245      20.74612398  F       0.00006027      -0.00584452      -0.00413194
Ti       4.39609629       4.52958623      20.74616737  F      -0.00045051      -0.00612106      -0.00428343
Ti       4.38383555       0.45541378      20.95333223  F       0.00064350       0.00556520      -0.00371664
Ti       1.48829950       0.45545513      20.95333223  F      -0.00065551       0.00555635      -0.00372340
Ti       0.00001762       2.49438806      22.20066081  F       0.00009733      -0.00171771       0.00263267
Ti       2.93618790       2.48184697      22.25946021  F      -0.00010230       0.00087428       0.00690638
Ti       0.00018790       5.91656861      22.86103675  F      -0.00011315       0.00421292      -0.00826672
Ti       2.93601762       5.92359713      22.87757002  F      -0.00001771      -0.00422814       0.00023919
Ti       4.45360078       3.88285194      24.15575201  F      -0.01353703      -0.00030351       0.00706717
Ti       1.41852840       3.88278993      24.15579541  F       0.01360972      -0.00024597       0.00691394
Ti       4.42536821       1.10533158      24.37923316  F      -0.00990790      -0.00846131       0.00715637
Ti       1.44691365       1.10533847      24.37923316  F       0.00989821      -0.00835520       0.00710586
Ti       0.00009982       5.73437140      25.67728979  F      -0.00006081       0.02371153      -0.01409796
Ti       2.93604698       5.86974625      25.67446915  F      -0.00014879       0.00679809       0.01955341
Ti       2.93603523       2.84137655      26.33458474  F       0.00004924      -0.00739623      -0.01150312
Al       0.00001762       2.83208099      26.29110355  F       0.00003076       0.02863514       0.00668644
Ti       4.42684208       0.68537049      27.43970987  F      -0.01002441       0.00099059      -0.00088567
Ti       1.44514030       0.68535671      27.43970987  F       0.01017364       0.00097374      -0.00090642
Ti       1.47734235       4.72707392      27.92047641  F       0.01130111      -0.02347027      -0.01175493
Ti       4.39470462       4.72710149      27.92047641  F      -0.01136818      -0.02360665      -0.01179902
Ti       2.93598826       2.57392061      29.17379341  F       0.00017392      -0.01804736      -0.00247868
Ti       5.87199413       2.55581872      29.08513865  F      -0.00007133      -0.00207946      -0.01745969
Ti       2.93599413       6.52329545      29.68719253  F      -0.00001210       0.03328661       0.01341500
Ti       5.87199413       6.56213837      29.66579909  F       0.00001076       0.03146157       0.03743948
Ti       4.42153379       4.37588210      30.88392324  F      -0.00494145       0.01782242       0.03501248
Ti       1.45044272       4.37587521      30.88392324  F       0.00500923       0.01792655       0.03510744
Ti       4.42081154       1.54386313      31.36304079  F       0.02603189      -0.01645765      -0.02482909
Ti       1.45115323       1.54385624      31.36304079  F      -0.02598294      -0.01640208      -0.02475962
Ti       2.93596477       6.31415557      32.51984865  F       0.00018300      -0.08880427       0.75945047
Ti       0.00001174       6.31261205      32.51602994  F      -0.00013719      -0.04632435       0.74496871
Ti       5.87197064       3.27839215      33.13010407  F       0.00006136       0.29158715       0.26537090
Ti       2.93602349       3.27316210      33.11222558  F      -0.00005822       0.29762673       0.20872358
Ti       1.46851086       1.14989379      34.43458307  F       0.01341427       0.05453101      -0.74855975
Ti       4.40354198       1.14989379      34.43458307  F      -0.01348421       0.05461633      -0.74848459
