64
Lattice="5.088765 0.0 0.0 0.0 9.739025 0.0 0.0 0.0 38.303587" Properties=species:S:1:pos:R:3:move_mask:L:1:forces:R:3 job_name=BondOrder-VacuumGB-T2-V-V-33-d-0.00 top_level=BondOrder-VacuumGB solute=V energy=-481.59521045 stress_kbar_3x3="_JSON [[-20.63129131, -0.48906477, 0.02730658], [-0.48906475, -20.99736896, 0.14000903], [0.02730657, 0.14000904, -21.38892151]]" pbc="T T T"
Ti       2.54456570       9.27199006       8.34864982  F       0.86797425       0.02428825       0.94356555
Ti       0.00019846       4.40441562       8.34864982  F       0.87398873       0.02444393       0.94027063
Ti       1.27210474       1.89432801       8.96062623  F      -0.83409403      -0.43189850       0.62912120
Ti       3.81625825       6.76473650       8.96457150  F      -0.83402958      -0.42562592       0.61680708
Ti       2.71874903       4.08427439       9.74067878  F      -0.17065422      -0.07836025       0.10889308
Ti       0.17298748       8.95727346       9.74167467  F      -0.16078022      -0.08582567       0.12101446
Ti       1.04225031       6.23022959      10.47124310  F       0.12025804       0.26264842      -0.66436544
Ti       3.58489755       1.36010354      10.47449890  F       0.11727572       0.26640932      -0.66630015
Ti       0.23681077       3.50675021      11.11888015  F       0.03977681       0.25899942      -0.45855823
Ti       2.78177848       8.37536672      11.12148479  F       0.04128536       0.25246335      -0.45419911
Ti       1.11955883       0.88000856      11.85017223  F      -0.05187211       0.02989476      -0.19742771
Ti       3.66475045       5.75107930      11.84691642  F      -0.04157420       0.03190274      -0.20746756
Ti       2.76563182       3.12361697      12.55032349  F       0.01941830      -0.08945391      -0.05909506
Ti       0.22811407       7.98822100      12.55568600  F       0.01296592      -0.07518680      -0.05597292
Ti       3.61107415       0.44707968      13.20397421  F       0.00081206       0.04492961      -0.03081450
Ti       1.06956681       5.32550339      13.20339965  F       0.00097078       0.03802608      -0.03482898
Ti       2.77843516       7.51941355      13.93840718  F      -0.00386790      -0.02967619       0.03194284
Ti       0.22510661       2.65050487      13.92503923  F       0.00254216      -0.02333498       0.02618836
Ti       3.64373385       4.88303027      14.65981694  F       0.01412091       0.00766777      -0.02072785
Ti       1.08421227       0.01361516      14.67061855  F       0.00566760       0.01688598      -0.03131233
Ti       0.23409846       7.08010561      15.34610231  F       0.00593248      -0.00011471       0.01263139
Ti       2.76957562       2.21154754      15.32798471  F      -0.00580998       0.00379554       0.00922146
Ti       1.13945081       4.47023195      15.96443711  F      -0.00228349      -0.00182478      -0.00169686
Ti       3.67124880       9.33561511      15.98780230  F       0.00130626       0.01107029      -0.01401770
Ti       0.24139575       1.86887020      16.75134601  F      -0.02843628       0.00432147       0.00075550
Ti       2.81607166       6.71789179      16.75513806  F      -0.02488590      -0.01238428       0.00237336
Ti       0.98513402       8.84832299      17.37634564  F      -0.00443041       0.00295414       0.01248805
Ti       3.53551617       3.99954487      17.39113082  F       0.00890647       0.00246675       0.00875655
Ti       2.74675760       1.17184818      18.12292085  F       0.00987013      -0.01532422       0.00305166
Ti       0.34776620       6.02739492      18.17275382  F       0.00707217      -0.00207150      -0.00977005
Ti       3.82303648       8.16620168      18.93790627  F       0.00810777      -0.00637879       0.00203462
Ti       1.28270973       3.36659590      18.93940011  F       0.02430609      -0.01633041      -0.00205521
Ti       0.00008651       0.83216073      19.50020293  F       0.00305711       0.01087330      -0.00410041
V        2.54448936       5.64835207      19.50024123  F       0.00151944       0.00485383      -0.00441797
Ti       3.80622829       3.36662512      20.06115896  F      -0.01421869      -0.02298593       0.00484257
Ti       1.26589136       8.16628933      20.06265280  F      -0.00229226      -0.01790959       0.00004389
Ti       2.34198196       1.17206244      20.87771483  F      -0.01771179       0.00600426      -0.01407912
Ti       4.74106495       6.02742414      20.82788186  F      -0.01275608       0.01260627       0.00180351
Ti       1.55336587       3.99958383      21.60942825  F      -0.00398366      -0.01344636      -0.01122590
Ti       4.10370732       8.84843986      21.62413683  F       0.01157657      -0.01546431      -0.01402635
Ti       4.84749139       1.86882151      22.24925137  F       0.01379810       0.01834320       0.00730936
Ti       2.27293251       6.71787232      22.24542101  F       0.01515158       0.00195666       0.00501054
Ti       1.41759762       9.33552746      23.01275677  F       0.01565986      -0.00627154       0.00952835
Ti       3.94941087       4.47012482      23.03616026  F       0.02518307      -0.02076629       0.00189482
Ti       4.85479376       7.07995953      23.65441846  F      -0.01305439       0.02775031       0.02687342
Ti       2.31925045       2.21146962      23.67265096  F       0.00121773       0.03493910       0.03597907
Ti       1.44512275       4.88294262      24.34074213  F      -0.04064064      -0.02162690      -0.00196646
Ti       4.00469521       0.01340090      24.32997882  F      -0.02840715      -0.01243761       0.01358235
Ti       2.31038582       7.51931616      25.06207528  F       0.01594423      -0.01503045       0.00846423
Ti       4.86372455       2.65041722      25.07551984  F       0.01223185       0.00020704       0.01685822
Ti       4.01932541       5.32546443      25.79715942  F       0.06220930      -0.01709860       0.14985457
Ti       1.47782824       0.44698229      25.79666147  F       0.06150410      -0.00570421       0.14467415
Ti       4.86072726       7.98813335      26.44494968  F      -0.12279604      -0.00570401       0.17865057
Ti       2.32320951       3.12350984      26.45035048  F      -0.12418903      -0.01364659       0.17913872
Ti       1.42414686       5.75105983      27.15368095  F       0.12232599       0.15666230       0.45710765
Ti       3.96941990       0.88001830      27.15042514  F       0.13039999       0.15887347       0.44411473
Ti       2.30725114       8.37508429      27.87899767  F       0.13910200       0.29354380       0.38652973
Ti       4.85222394       3.50657491      27.88167892  F       0.13475132       0.29434442       0.38699984
Ti       1.50391834       1.35963606      28.52625169  F      -0.25588380       0.14624325       0.15012554
Ti       4.04655540       6.22980108      28.52943088  F      -0.25595022       0.14269688       0.14229932
Ti       4.91548746       8.95665990      29.25861627  F      -0.79067073      -0.59689277      -0.58259821
Ti       2.36987857       4.08366083      29.25965047  F      -0.78241728      -0.58798795      -0.57265507
Ti       3.81695541       1.89409428      30.03997114  F       0.83804964       0.03643295      -1.06049381
Ti       1.27290877       6.76446381      30.03598757  F       0.84145020       0.03726515      -1.04662800
