100
Lattice="4.4265 -2.555641 0.0 3.767997 6.526363 -0.031456 0.0 0.0 61.781652" Properties=species:S:1:pos:R:3:move_mask:L:1:forces:R:3 job_name=BondOrder-VacuumGB-CSL13-V-V-59-d-4.19 top_level=BondOrder-VacuumGB solute=V energy=-761.12717995 stress_kbar_3x3="_JSON [[-36.22740768, -2.40836618, -0.48192246], [-2.40836615, -39.44805249, -0.36683245], [-0.48192249, -0.36683241, -24.06218197]]" pbc="T T T"
Ti       2.47237822      -0.90684204       8.00304323  F       0.10631948      -0.02720311       1.77603071
Ti       5.76421315       1.54432527       7.98755946  F      -0.07601823       0.07942463       1.77561953
Ti       4.98117986      -0.81197118       9.37846956  F       0.41116825      -0.00002614      -0.13286830
Ti       4.59165750       3.76370639       9.36237131  F      -0.20682325       0.35556909      -0.13184151
Ti       7.09962847       3.85266100      10.63217413  F      -0.14124763      -0.04347183      -0.95993757
Ti       3.80403580       1.40459431      10.64790166  F       0.03306099      -0.14531242      -0.95945173
Ti       1.65900184      -0.45153605      10.86488282  F       0.31113719      -0.26740846      -0.10888459
Ti       2.13850387       3.62304529      10.84946187  F      -0.38764115       0.13411195      -0.11008948
Ti       4.71673506       3.65197787      12.16023448  F       0.04980108      -0.12278050      -0.34201850
Ti       4.82176549      -0.75961354      12.17602442  F      -0.13099409      -0.01804351      -0.34149400
Ti       3.44314530       5.86966592      13.26410363  F      -0.07884673       0.03279370       0.03699968
Ti       2.95306826       1.80206896      13.27989209  F       0.06734850      -0.05279360       0.03673329
Ti       2.40824930      -0.96062935      13.74949761  F       0.04262689      -0.04311751       0.00243820
Ti       5.74970204       1.46129068      13.73395423  F      -0.05799188       0.01431840       0.00197234
Ti       4.28946959       3.75683749      14.95754075  F      -0.00476103       0.01636659      -0.03390806
Ti       5.12705702      -1.07801787      14.97289938  F       0.01656206       0.00635707      -0.03189274
Ti       6.93000737       3.59748945      15.86573866  F      -0.00782730      -0.00432359      -0.01208221
Ti       3.66926332       1.12949434      15.88134193  F      -0.00303374      -0.00701744      -0.01096362
Ti       6.37765470       0.88768816      16.61071485  F      -0.00723287      -0.00201047      -0.00629113
Ti       1.59821001      -0.70407643      16.62625848  F       0.00082367      -0.00483672      -0.00409227
Ti       4.78804194       3.18239226      17.69371227  F      -0.00998247       0.00816855       0.00377060
Ti       4.37914043      -0.93286328      17.70894756  F       0.01424041      -0.00334273       0.00557025
Ti       3.17722199       5.40867450      18.49163184  F       0.00022217      -0.00040528       0.00326948
Ti       2.68576776       1.34100247      18.50748523  F       0.00431210      -0.00220381       0.00151508
Ti       5.89399553       5.19603558      19.44057738  F       0.00173123      -0.00346357      -0.00883465
Ti       5.57024170       1.03262071      19.45630331  F      -0.00681842      -0.00109480      -0.00952310
Ti       0.58576553       0.91325994      20.38589258  F       0.00426619       0.00479459      -0.00669186
Ti       3.85540325       3.37499775      20.37122009  F       0.00170353       0.00862163      -0.01034566
Ti       3.30371291       0.64810658      21.19373087  F       0.00619877       0.00806150      -0.00326883
Ti       6.69420370       3.04128809      21.17769478  F       0.00381232       0.01050731      -0.00149697
Ti       5.09006761       5.35742126      22.28412208  F       0.01090390       0.00395911       0.00193375
Ti       6.11016918       0.41759159      22.30052955  F       0.00504357       0.00497065      -0.00047261
Ti       4.54080183       2.64066888      22.98636405  F       0.00483321       0.00511885       0.00035940
Ti       4.03216254      -1.41788191      23.00160252  F       0.01036378       0.00412932       0.00069460
Ti       7.16885256       2.51017166      23.91882570  F       0.00119353       0.00775790       0.00498713
Ti       2.60830872       0.79065841      23.93493030  F       0.01041633       0.00480613      -0.00201446
Ti       5.74510760       4.80448385      25.15778594  F       0.00777832       0.00286862       0.00477904
Ti       5.31216585       0.70603176      25.17288710  F       0.00700357       0.00951901       0.00786911
Ti       3.62334322       2.95341016      25.58747627  F       0.00569832       0.00788966      -0.00110091
Ti       0.34429073       0.49844805      25.60177322  F       0.00186129       0.00155172      -0.00041109
Ti       2.89896090       0.52078668      26.73122791  F       0.00144337       0.00638821      -0.00034660
Ti       6.80059073       2.62169872      26.71536691  F       0.00623290      -0.00227028      -0.00062488
Ti       4.95156971       5.22302250      28.02404175  F      -0.00430058       0.00238819      -0.00311845
Ti       1.65630297       2.76899833      28.03873984  F       0.00580198       0.00713111      -0.00562976
Ti       4.41182713       2.44166915      28.22205018  F       0.00958738       0.00181519      -0.00429816
Ti       3.94566025      -1.63976715      28.24309021  F      -0.00694957       0.00263556      -0.00849562
Ti       6.92768471       2.53474613      29.50473401  F       0.00882036       0.00464265      -0.00240831
Ti       2.78204391       0.58360715      29.52303412  F      -0.00920760       0.00186324      -0.00115853
Ti       3.63750832       2.89819861      30.90828215  F      -0.00374438       0.00757242       0.00292501
Ti       0.31919502       0.45821133      30.92952646  F      -0.00976332      -0.00278302       0.00670870
Ti       5.76092903       4.76298728      30.86671291  F      -0.00584671      -0.00036234      -0.01103225
Ti       5.29942823       0.67867427      30.89498205  F      -0.00212022       0.00752705      -0.01391550
Ti       2.80744124       0.58558188      32.28208078  F      -0.00085931       0.00676367      -0.00375065
Ti       6.92989876       2.55761540      32.26968455  F       0.00106732       0.00429955       0.00632045
Ti       3.94152636      -1.63206364      33.63296409  F      -0.00262399      -0.00822343       0.00030045
Ti       4.48492921       2.45575570      33.61594095  F       0.00414639       0.00642268       0.00469282
Ti       1.70824040       2.80760866      33.73791105  F      -0.00326962       0.00972285      -0.00423819
Ti       4.93715991       5.23627593      33.70849193  F       0.00462368      -0.00778802       0.00210863
Ti       2.89871062       0.57413409      35.04666060  F       0.00240836       0.01030099       0.00033428
V        6.88172093       2.62304014      34.99591112  F       0.00068946      -0.00062501       0.01154895
Ti       0.36125999       0.46867147      36.21370912  F      -0.00969833       0.00190474      -0.00038226
Ti       3.64431507       3.03736141      36.17724555  F       0.00727177       0.00259310       0.00605928
Ti       5.33793094       0.78617141      36.49464917  F       0.01201036       0.00251580       0.00707260
Ti       5.83250642       4.77903314      36.47275797  F      -0.00556370       0.00330662       0.00461744
Ti       7.13459677       2.58205573      37.80332225  F      -0.00520288       0.00670576      -0.01133595
Ti       2.65697705       0.80878378      37.81660616  F       0.00318778       0.01289432       0.00560847
Ti       4.52728110       2.67172633      38.78798779  F       0.00170834       0.00160992       0.01271545
Ti       4.03459546      -1.39305928      38.79104451  F       0.00547984       0.00733033      -0.00774531
Ti       6.11681676       0.45681890      39.40765153  F       0.01048815       0.00282547       0.01380020
Ti       5.09843018       5.39417041      39.37833707  F      -0.00442551      -0.00008149       0.00260214
Ti       3.28914011       0.69613086      40.55917007  F       0.00689142      -0.00256527       0.00712959
Ti       6.70624862       3.07229128      40.55166582  F       0.00584119       0.01039088      -0.00396533
Ti       3.85479594       3.42110253      41.37360373  F       0.00824143       0.01284189       0.01476824
Ti       0.59225404       0.95479805      41.39309689  F      -0.00538935      -0.00258385      -0.00105373
Ti       5.89718152       5.25054041      42.26245417  F       0.00274921      -0.01054019       0.00428303
Ti       5.57556870       1.07941527      42.27684430  F      -0.00662949      -0.01098816       0.00170343
Ti       3.18414153       5.46351248      43.23194349  F      -0.00081109      -0.01027538       0.01282605
Ti       2.69314016       1.39281182      43.24422354  F      -0.01092080      -0.00093706       0.00850811
Ti       4.79748300       3.24240524      44.03692491  F       0.00326006       0.00633643       0.00626146
Ti       4.38896276      -0.87284419      44.05512490  F       0.01512185      -0.00720142      -0.00030095
Ti       6.38699051       0.94932823      45.15001243  F      -0.01016461      -0.00706205      -0.01603964
Ti       1.61572778      -0.64607250      45.16870300  F       0.00152560      -0.01888731      -0.01532017
Ti       6.94790095       3.65668611      45.84033855  F      -0.00928678      -0.01990710      -0.02245440
Ti       3.68210322       1.19977975      45.85096975  F      -0.00593412      -0.02777986      -0.01822660
Ti       4.32625996       3.79500387      46.77147879  F       0.01944834       0.00287152      -0.01018884
Ti       5.11087714      -1.00730250      46.78880733  F      -0.00644378       0.00785881      -0.01774517
Ti       5.75592154       1.49402123      48.04191567  F       0.03844711      -0.02554005       0.00185410
Ti       2.42017978      -0.92956880      48.05553794  F      -0.04485148       0.02013989      -0.00114857
Ti       3.45385384       5.90845433      48.42696831  F      -0.02663191      -0.07424266       0.02642038
Ti       2.96451852       1.83454671      48.44148062  F      -0.05346068      -0.05502676       0.02746199
Ti       4.69636013       3.68596578      49.57153925  F       0.01553443       0.02023394       0.40396739
Ti       4.85314444      -0.75567108      49.59258123  F       0.00847960       0.02228294       0.40047936
Ti       2.14254850       3.62973390      50.91167971  F       0.16892897      -0.01911369       0.45663450
Ti       1.66010717      -0.44332446      50.92975789  F      -0.10861421       0.14333812       0.45619171
Ti       7.10152874       3.85996983      51.05563152  F       0.48646492      -0.13968203       0.16332950
Ti       3.80665129       1.41379619      51.07048577  F      -0.37253446       0.35280574       0.16367913
Ti       4.60811335       3.75756450      52.36510735  F       0.15230685      -0.20141559       0.15828499
Ti       4.96654489      -0.80046734      52.38182452  F      -0.25471220       0.03652690       0.15393665
Ti       3.47971264       5.95945842      53.73544197  F       0.04788311      -0.08265600      -1.40309964
Ti       3.01242246       1.87854012      53.75153994  F      -0.09734268      -0.00105897      -1.40167737
