100
Lattice="4.4265 -2.555641 0.0 3.767997 6.526363 -0.031456 0.0 0.0 61.781652" Properties=species:S:1:pos:R:3:move_mask:L:1:forces:R:3 job_name=BondOrder-VacuumGB-CSL13-V-V-57-d-2.88 top_level=BondOrder-VacuumGB solute=V energy=-760.93053312 stress_kbar_3x3="_JSON [[-37.47081253, -2.1251165, -0.16266792], [-2.12511651, -38.38738486, -0.39789464], [-0.16266789, -0.39789463, -23.85997767]]" pbc="T T T"
Ti       2.45913532      -0.93284618       8.00613039  F       0.10299430      -0.02352946       1.76836443
Ti       5.74965464       1.51792337       7.98990943  F      -0.07377472       0.07714267       1.76661174
Ti       4.96521232      -0.83625432       9.38328607  F       0.41418454       0.00365973      -0.14689535
Ti       4.57971526       3.73719497       9.36761994  F      -0.20282387       0.35841458      -0.14677096
Ti       7.08660162       3.82870758      10.64025774  F      -0.13941241      -0.03941780      -0.96253881
Ti       3.79048941       1.38043614      10.65617243  F       0.03468126      -0.14250316      -0.96614287
Ti       1.64540757      -0.47509225      10.86709692  F       0.31619426      -0.27002748      -0.10672925
Ti       2.12568138       3.59873023      10.85112107  F      -0.39178760       0.14071135      -0.10860298
Ti       4.70321778       3.63221472      12.16410281  F       0.05129824      -0.11921642      -0.34604757
Ti       4.81219098      -0.78187060      12.17952285  F      -0.13434772      -0.01844427      -0.34371176
Ti       3.43315166       5.85161018      13.26764953  F      -0.07905567       0.03519806       0.04075899
Ti       2.94195552       1.78418073      13.28276013  F       0.07308332      -0.05256385       0.04441351
Ti       2.39749232      -0.97716536      13.74741748  F       0.04351772      -0.04471540       0.00969623
Ti       5.74046935       1.44356136      13.73193702  F      -0.05835820       0.01583497       0.01209707
Ti       4.28251713       3.74328253      14.95890168  F      -0.00146791       0.01566463      -0.02145736
Ti       5.11821934      -1.09043220      14.97475437  F       0.01638752       0.00453544      -0.02493245
Ti       6.92382496       3.58606563      15.86424831  F      -0.00651180      -0.00517717      -0.01341110
Ti       3.66122201       1.11738599      15.87936369  F      -0.00275299      -0.00300948      -0.00942999
Ti       6.36921240       0.87941388      16.60853824  F      -0.00667501      -0.00061972      -0.00903792
Ti       1.59495531      -0.71504992      16.62383368  F       0.00234699      -0.00662012      -0.00386992
Ti       4.78616007       3.17336725      17.69127756  F      -0.00427686       0.00743660       0.00070414
Ti       4.37432551      -0.93887222      17.70644628  F       0.01584536      -0.00486285      -0.00254336
Ti       3.17231843       5.40148977      18.48505741  F       0.00173196       0.00245395      -0.00457683
Ti       2.68547625       1.33338265      18.50176769  F       0.00186165      -0.00087541      -0.00987971
Ti       5.89356719       5.19299359      19.44293698  F       0.00122880      -0.00516677      -0.00801437
Ti       5.57261617       1.02683798      19.45947012  F      -0.00726829       0.00031541      -0.00696687
Ti       0.58898463       0.90705918      20.37355195  F       0.00163572       0.00604302       0.00006354
Ti       3.85661674       3.37493237      20.36213589  F       0.00319708       0.00287327      -0.01433124
Ti       3.30054273       0.65357424      21.18673640  F       0.00313094       0.00424933      -0.00153403
Ti       6.70519291       3.03701450      21.17064419  F       0.00713559       0.01357811       0.00052132
Ti       5.10135757       5.36420808      22.29636853  F       0.00019495       0.00733769       0.00013235
Ti       6.12074564       0.42485996      22.31067517  F       0.00231781       0.00203848       0.00221587
Ti       4.54722664       2.64535676      22.96730495  F      -0.00364296       0.00956930       0.00061606
Ti       4.04462129      -1.41604249      22.97945204  F       0.00005221       0.01430544       0.00002502
Ti       7.16263028       2.53813788      23.91527782  F       0.00475120       0.00920562      -0.00177119
Ti       2.64312357       0.79693325      23.93316685  F       0.00936065       0.00485712      -0.00056081
Ti       5.76933358       4.83583344      25.17510626  F       0.00283810       0.00586912      -0.00098193
Ti       5.32575352       0.73704922      25.18825381  F      -0.00316077       0.00127388       0.00321904
Ti       3.64259363       2.98348163      25.56452995  F      -0.00728197       0.00468148      -0.00033747
Ti       0.35910613       0.52528466      25.57767401  F      -0.00374283       0.01223632      -0.00539518
Ti       2.90014620       0.57305290      26.73449627  F       0.00991988       0.00575205      -0.00114366
Ti       6.83184795       2.65633315      26.71437331  F       0.00202439      -0.00297456       0.00486419
Ti       4.95889968       5.27319430      28.03626319  F       0.00933170      -0.00143414       0.00279730
Ti       1.67330494       2.82218340      28.04808826  F      -0.00283715      -0.00276775      -0.00371220
Ti       4.42601367       2.49127602      28.20695187  F       0.01137636      -0.00756463      -0.00976157
Ti       3.95854909      -1.58811449      28.21989382  F      -0.00381969       0.00046859      -0.00492416
Ti       6.93011854       2.60535720      29.49916045  F      -0.00622025       0.00055940       0.00319545
Ti       2.79152466       0.62681141      29.51921304  F       0.00079986       0.00154037       0.00253398
Ti       3.63698404       2.94924160      30.87467486  F       0.00677772      -0.00258282       0.00152943
Ti       0.32888470       0.51678419      30.91279881  F       0.00559594      -0.00506461       0.01317971
Ti       5.76178852       4.81717328      30.91359286  F       0.00674479       0.00204147       0.00120116
Ti       5.29705649       0.73279402      30.88842786  F      -0.00466104       0.00109704      -0.01095725
Ti       2.77950443       0.64314055      32.29385487  F      -0.00000635       0.00769091       0.00121059
Ti       6.96626166       2.59729034      32.25056005  F       0.00458965      -0.01056662       0.00089569
Ti       3.92788153      -1.59520005      33.59708773  F      -0.01683968      -0.01008510      -0.00301889
Ti       4.44585400       2.64961976      33.56453719  F       0.00272500       0.01380870       0.00612752
Ti       6.04354933       0.31328387      33.70476476  F       0.00584827       0.00679553       0.00314258
V        4.98315691       5.33874139      33.67021516  F      -0.00170297       0.00469258      -0.01011018
Ti       2.86383091       0.60589752      34.99978808  F      -0.01003942       0.00914426      -0.00304600
Ti       6.90263756       2.65721407      35.00933589  F      -0.01600719      -0.00507275       0.00671267
Ti       0.37411333       0.54836448      36.23384394  F       0.00552682       0.00289598       0.00291423
Ti       3.65593501       3.00485175      36.20446097  F       0.00341190      -0.00280276       0.00792992
Ti       5.32301832       0.77196505      36.54236530  F       0.00131968       0.00918269       0.00007894
Ti       5.79281557       4.86603755      36.43508662  F       0.01979575       0.00495970       0.00035041
Ti       7.14103094       2.59141109      37.80636408  F       0.00845723       0.00021883      -0.01214201
Ti       2.68740125       0.79892817      37.81509553  F       0.00622564      -0.00434279      -0.00535276
Ti       4.54690470       2.67313610      38.78670611  F      -0.00477512      -0.00319542       0.00304311
Ti       4.04007183      -1.41079661      38.82779550  F      -0.00158990      -0.01510872      -0.00368552
Ti       6.12170969       0.44923407      39.41069604  F       0.00568092       0.00101420      -0.00535732
Ti       5.10314516       5.39793107      39.38708663  F      -0.00353494       0.00044835      -0.01227683
Ti       3.29435617       0.67531545      40.57430915  F       0.00564756       0.00056972      -0.00376109
Ti       6.73023654       3.04620709      40.56140977  F       0.00435271       0.00664134      -0.00348804
Ti       3.86111554       3.38383879      41.38354853  F       0.00801259       0.00311907       0.00381047
Ti       0.60335570       0.92797404      41.40762759  F       0.00016067       0.00767694       0.01054345
Ti       5.90206540       5.21166907      42.25622099  F       0.00057040      -0.00479330       0.00107561
Ti       5.59116184       1.04457687      42.28082994  F      -0.00999111       0.00100971       0.00355250
Ti       3.19285609       5.42100240      43.24282898  F      -0.00246619      -0.00097692       0.01851515
Ti       2.70567922       1.34914658      43.25986241  F      -0.00483142       0.00109873       0.02390261
Ti       4.81141183       3.19735459      44.04268083  F      -0.00732006       0.00881735       0.01472998
Ti       4.39340487      -0.91427986      44.06156715  F       0.00712003       0.00181365       0.01592205
Ti       6.38932028       0.90731084      45.15046837  F      -0.01233842      -0.00583352      -0.00787142
Ti       1.62562119      -0.69372722      45.16218220  F       0.00337574      -0.00593812      -0.00355952
Ti       6.95350369       3.61070803      45.85216980  F      -0.01268423      -0.00788706      -0.01895310
Ti       3.68563694       1.14782593      45.86807836  F      -0.00648519      -0.01968206      -0.01910164
Ti       4.32245846       3.75881495      46.77297674  F       0.02171048      -0.00084050      -0.01842458
Ti       5.12876089      -1.05805633      46.78938594  F      -0.02445479       0.02396267      -0.02239830
Ti       5.75711320       1.45997916      48.03542561  F       0.03535251      -0.02389347      -0.01078529
Ti       2.41371814      -0.96217696      48.05190062  F      -0.03679499       0.01780525      -0.01376615
Ti       3.44981329       5.87094153      48.43971580  F      -0.02838908      -0.06897096       0.00972392
Ti       2.96168786       1.80216559      48.45519554  F      -0.04565858      -0.05701655       0.00934523
Ti       4.69653425       3.65338137      49.57486933  F       0.01930151       0.01100463       0.40135010
Ti       4.84049933      -0.77956644      49.58886354  F       0.00292273       0.01793625       0.40011779
Ti       2.13175639       3.60344604      50.91222973  F       0.18542803      -0.02230220       0.44718587
Ti       1.65109725      -0.46944913      50.92770878  F      -0.10764621       0.14482616       0.44604462
Ti       7.09394374       3.83484117      51.06444940  F       0.48501780      -0.15118746       0.18515383
Ti       3.79668079       1.38676422      51.08147786  F      -0.37218793       0.34718042       0.18237762
Ti       4.59453130       3.73372278      52.36960838  F       0.14933932      -0.19331687       0.19187799
Ti       4.95689035      -0.82676805      52.38552308  F      -0.24028923       0.02972792       0.19206710
Ti       3.46618433       5.93411507      53.74501441  F       0.04890424      -0.08312244      -1.39749663
Ti       2.99866111       1.85301805      53.76086639  F      -0.09342527       0.00108744      -1.39687670
