64
Lattice="5.872 0.0 0.0 0.0 6.890708 0.0 0.0 0.0 43.394398" Properties=species:S:1:pos:R:3:move_mask:L:1:forces:R:3 job_name=BondOrder-VacuumGB-T1g-V-V-46-d-6.48 top_level=BondOrder-VacuumGB solute=V energy=-484.97734977 stress_kbar_3x3="_JSON [[-18.5065652, -0.00032191, -0.00024271], [-0.00032192, -22.31501042, -3.8537064], [-0.00024268, -3.85370641, -22.15591831]]" pbc="T T T"
Ti       4.40402936       5.03090591       8.22445346  F       0.00020977      -0.08373957       1.11891586
Ti       1.46802936       5.03167767       8.22237053  F       0.00012484      -0.08539230       1.12871656
Ti       5.87155960       2.92172910       9.37605400  F       0.00030116       0.40043661      -0.16265443
Ti       2.93661656       2.92172910       9.37614079  F      -0.00061962       0.40053459      -0.16227009
Ti       0.00015267       6.73679026       9.99494490  F      -0.00019945      -0.48873274      -0.24605369
Ti       2.93601762       6.73682471       9.99494490  F      -0.00020780      -0.48904245      -0.24610344
Ti       4.40418203       1.80140334      11.47356562  F      -0.00029270       0.05204431      -0.13420453
Ti       1.46788256       1.80209241      11.47300149  F       0.00049494       0.05424106      -0.12838501
Ti       1.46802349       4.63132064      11.35566304  F       0.00011351       0.35618862      -0.21919747
Ti       4.40403523       4.62948772      11.35384048  F       0.00010981       0.36194046      -0.21369975
Ti       5.87148326       6.70677433      12.82139562  F       0.00263313      -0.15759642      -0.05555139
Ti       2.93659307       6.70677433      12.82135223  F      -0.00267537      -0.15734155      -0.05551336
Ti       2.93799648       3.13719465      13.44067708  F      -0.00447115      -0.03135115      -0.09292312
Ti       5.87012683       3.13722221      13.44067708  F       0.00430792      -0.03120995      -0.09232660
Ti       4.40400000       5.20214690      14.67863246  F      -0.00000045      -0.02162237       0.01961606
Ti       1.46809982       5.20233294      14.67724384  F      -0.00007864      -0.02724599       0.02468621
Ti       4.40402936       1.13606414      14.98933635  F      -0.00003893       0.01272062       0.05261333
Ti       1.46805872       1.13614683      14.98877222  F      -0.00016783       0.01432128       0.05469923
Ti       2.93507222       3.28959644      16.26126955  F       0.00700024       0.02387748      -0.01320587
Ti       0.00093365       3.28960333      16.26131295  F      -0.00696832       0.02381508      -0.01342472
Ti       2.93590018       6.28751609      16.86792324  F      -0.00008881       0.00099169      -0.04179173
Ti       0.00012918       6.28751609      16.86787984  F       0.00012071       0.00098138      -0.04181842
Ti       4.40397064       1.55266945      18.02611972  F       0.00004598       0.01287448       0.02771709
Ti       1.46796477       1.55225601      18.02499146  F       0.00011360       0.01754863       0.02836740
Ti       4.40400000       4.37582697      18.52220448  F       0.00002821       0.00646145       0.00135191
Ti       1.46799413       4.37690192      18.52242145  F       0.00004913       0.00631053       0.00587038
Ti       2.93588256       6.56062241      19.70283586  F      -0.00401442       0.00715955      -0.00922217
Ti       0.00008808       6.56062931      19.70279247  F       0.00390028       0.00714109      -0.00910847
Ti       2.93679272       2.58335399      20.29820700  F      -0.00926353       0.00311739      -0.00036483
Ti       5.87118966       2.58331954      20.29820700  F       0.00908043       0.00343673      -0.00032805
Ti       1.46796477       4.76887296      21.46807658  F       0.00002551      -0.00235077       0.01608588
Ti       4.40395890       4.76945178      21.46742566  F       0.00014895      -0.01511551      -0.01060032
Ti       4.40395890       0.70928125      21.97639856  F       0.00009971       0.00738812      -0.00580182
Ti       1.46796477       0.70509859      21.97874185  F       0.00009419       0.00914780      -0.00108456
Ti       0.00094539       2.88020569      23.14743978  F      -0.00327926       0.00601913       0.01252512
Ti       2.93499589       2.88019880      23.14743978  F       0.00334372       0.00619760       0.01268351
Ti       5.86861773       5.82831242      23.73526030  F       0.01268661      -0.00437585       0.00860687
Ti       2.93931181       5.82831242      23.73526030  F      -0.01260834      -0.00433470       0.00860331
Ti       4.40400587       3.94899585      25.38754539  F      -0.00020743      -0.01065511      -0.04056560
Ti       1.46798238       3.94566764      25.35825418  F      -0.00018123      -0.01373006      -0.02582069
Ti       4.40399413       1.11652898      24.95186564  F      -0.00011684      -0.00078963      -0.01298984
Ti       1.46797064       1.09655971      24.98354355  F      -0.00010991       0.01602474      -0.02224727
Ti       5.81562880       6.06520118      26.58900609  F       0.00220359      -0.00811203       0.03110104
Ti       2.99231248       6.06516673      26.58900609  F      -0.00198933      -0.00799640       0.03082663
Ti       2.96796130       2.30651980      27.14701466  F       0.00376150      -0.00171402      -0.00706203
Ti       5.83991539       2.30645089      27.14710144  F      -0.00333248      -0.00130214      -0.00795705
V        4.40398826       0.47445281      28.53311852  F      -0.00017800       0.02156827      -0.00957416
Ti       1.46801762       0.36557962      28.52578486  F      -0.00014183      -0.00238768      -0.03497604
Ti       1.46800000       4.38810622      28.56705294  F      -0.00017481       0.06099445      -0.02106256
Ti       4.40396477       4.47492914      28.57525448  F       0.00003435       0.04298214      -0.02592184
Ti       2.96109693       2.32922468      29.95241909  F      -0.01202582      -0.03419164       0.07059787
Ti       5.84686197       2.32927981      29.95237570  F       0.01228675      -0.03449410       0.07120843
Ti       2.98971118       6.17846375      30.51359545  F       0.00216939       0.11498464       0.11505318
Ti       5.81828294       6.17837417      30.51359545  F      -0.00204184       0.11533234       0.11471901
Ti       4.40402349       4.06637906      31.68211980  F      -0.00001497       0.04437323       0.22735169
Ti       1.46804698       4.07419312      31.70277553  F      -0.00005418       0.03905437       0.23941765
Ti       4.40398238       1.26558878      32.17764043  F       0.00013229      -0.35043366       0.37070830
Ti       1.46800000       1.24950586      32.15199434  F       0.00004975      -0.36177739       0.33443296
Ti       2.93843101       6.00926241      33.35445311  F       0.00042532       0.42836581       0.06651699
Ti       5.86969230       6.00922107      33.35440971  F      -0.00061699       0.42844220       0.06652921
Ti       0.00338814       3.08911129      33.94947709  F       0.08309661      -0.41785597       0.13217405
Ti       2.93272342       3.08913196      33.94947709  F      -0.08320950      -0.41791420       0.13210480
Ti       1.46804110       0.94570144      35.14581725  F       0.00002463       0.11184270      -1.16611851
Ti       4.40406459       0.95010460      35.15080761  F       0.00015329       0.04394477      -1.19387110
