64
Lattice="5.088765 0.0 0.0 0.0 9.739025 0.0 0.0 0.0 38.303587" Properties=species:S:1:pos:R:3:move_mask:L:1:forces:R:3 job_name=BondOrder-VacuumGB-T2-Al-Al-32-d-0.00 top_level=BondOrder-VacuumGB solute=Al energy=-477.36431317 stress_kbar_3x3="_JSON [[-19.95318913, -0.63926553, 3.30197557], [-0.63926552, -19.40537439, -0.00011966], [3.30197556, -0.00011968, -19.26050934]]" pbc="T T T"
Ti       2.54452499       9.28287829       8.34864982  F       0.82889544       0.00911993       0.94306669
Ti       0.00018828       4.40783402       8.34861152  F       0.81548354       0.02258359       0.95161537
Ti       1.26403905       1.90653101       8.94649221  F      -0.84535846      -0.38832021       0.64263380
Ti       3.81058936       6.77571239       8.94139783  F      -0.84563724      -0.40280089       0.64230622
Ti       2.68269004       4.10057752       9.73830396  F      -0.19478508      -0.11214750       0.08753272
Ti       0.14372199       8.97424858       9.73726976  F      -0.20320607      -0.11620547       0.08577160
Ti       0.99102681       6.23260592      10.48009122  F       0.09576583       0.25279520      -0.68121802
Ti       3.53437120       1.35892511      10.48223623  F       0.08095542       0.26152528      -0.67981566
Ti       0.18753626       3.49795587      11.10685282  F       0.07174732       0.28898525      -0.43025122
Ti       2.73682433       8.37279562      11.10145201  F       0.06800758       0.27355524      -0.44792608
Ti       1.06252395       0.87660964      11.85308330  F      -0.04393169       0.03087888      -0.19698593
Ti       3.61348114       5.74493398      11.84243490  F      -0.04910452       0.03494153      -0.19494327
Ti       2.70278558       3.12004274      12.55028519  F       0.01974974      -0.08878251      -0.06264449
Ti       0.15824024       7.99490197      12.54867644  F       0.02230355      -0.08862891      -0.06806537
Ti       3.53219321       0.44741081      13.19489626  F       0.00652795       0.04907543      -0.04201371
Ti       0.99151024       5.31116754      13.18938054  F      -0.00013614       0.04509178      -0.02538247
Ti       2.68779916       7.51227485      13.90466172  F      -0.00758021      -0.03210865       0.00452272
Ti       0.13996139       2.64432059      13.93178066  F      -0.00223302      -0.01871410       0.02169110
Ti       3.54676234       4.89013975      14.66494962  F       0.01292787       0.00786961      -0.03585766
Ti       1.01152435       0.00883330      14.67900704  F       0.00073670       0.01166543      -0.02726088
Ti       0.14391027       7.07481732      15.31300801  F       0.00380281      -0.01006587       0.00942027
Ti       2.67123015       2.22101387      15.32641427  F       0.00483761      -0.00474753       0.00489697
Ti       1.04672334       4.47480929      15.96279006  F      -0.00657175       0.00195387      -0.00662583
Ti       3.59225081       9.34373745      15.91265067  F      -0.00663998      -0.00071970      -0.01508075
Ti       0.13340706       1.86699057      16.77532405  F      -0.02556596      -0.01870537      -0.01003417
Ti       2.70616452       6.77064809      16.74843493  F      -0.01722851      -0.01310741      -0.00675249
Ti       0.84757961       8.85758480      17.36634840  F       0.02159775       0.00882105       0.01507132
Ti       3.42028618       4.00828078      17.34639223  F       0.01580891       0.00411194       0.01254741
Ti       2.73719072       1.12547095      18.10503307  F       0.00111392      -0.00540457       0.00362065
Ti       0.15371124       6.01825972      18.12491264  F      -0.00165303      -0.00483644       0.00835736
Ti       3.79475313       8.16351371      18.97892941  F       0.00952804       0.00413089       0.00324813
Ti       1.26959598       3.29284226      18.99271870  F       0.00734002       0.01629502       0.00646975
Al       5.08874464       0.83457601      19.50020293  F       0.00559678      -0.02298765      -0.00185895
Ti       2.54445374       5.69483643      19.50024123  F       0.00545530      -0.01097158      -0.00466907
Ti       3.81925044       3.29289096      20.00791697  F       0.00258094       0.00110363      -0.01106378
Ti       1.29420016       8.16340658      20.02162966  F      -0.00513608      -0.00457066      -0.00346284
Ti       2.35162517       1.12548069      20.89560260  F      -0.00455630       0.01009208      -0.01114086
Ti       4.93511992       6.01837658      20.87572304  F      -0.00930269       0.00690706      -0.01977803
Ti       1.66855516       4.00831974      21.65420514  F      -0.01316695      -0.00885416      -0.00981453
Ti       4.24127190       8.85751663      21.63421067  F      -0.02163179      -0.00479159      -0.02161444
Ti       4.95542409       1.86695161      22.22523502  F       0.01368151      -0.01320703       0.02545334
Ti       2.38275315       6.77059940      22.25212414  F       0.01359883       0.00281591       0.01604505
Ti       1.49666176       9.34365954      23.08787010  F       0.02765224      -0.01845201       0.00782255
Ti       4.04217906       4.47477034      23.03780731  F       0.02243074      -0.01390797       0.00255403
Ti       4.94501248       7.07471019      23.68758936  F      -0.00591873       0.01671320       0.04027714
Ti       2.41770787       2.22096517      23.67406820  F      -0.01026774       0.02841128       0.04310018
Ti       1.54212988       4.89007158      24.33564775  F      -0.03710705      -0.02159984       0.01891996
Ti       4.07734242       0.00861904      24.32159033  F      -0.02572728       0.00372920       0.01610560
Ti       2.40110832       7.51216772      25.09585904  F       0.00612055      -0.00969239       0.04878640
Ti       4.94892574       2.64424268      25.06877841  F       0.01214929      -0.01661077       0.01900739
Ti       4.09742778       5.31107015      25.81117853  F       0.05663649      -0.00610613       0.15318667
Ti       1.55670410       0.44727446      25.80562451  F       0.05384034       0.00075431       0.16929215
Ti       4.93069269       7.99478510      26.45195924  F      -0.12068427      -0.01391980       0.19506820
Ti       2.38611682       3.11991614      26.45031218  F      -0.11578547      -0.00231329       0.18915134
Ti       1.47541617       5.74488528      27.15812417  F       0.12624627       0.16465990       0.43013132
Ti       4.02632247       0.87648303      27.14755238  F       0.10162041       0.15392843       0.43250839
Ti       2.35215949       8.37249371      27.89906875  F       0.14268803       0.29931382       0.36191617
Ti       4.90144247       3.49775135      27.89370625  F       0.13478039       0.31848543       0.35574927
Ti       1.55443451       1.35851608      28.51843775  F      -0.20229269       0.16434037       0.13304946
Ti       4.09779926       6.23229427      28.52062106  F      -0.21237464       0.15221379       0.13308855
Ti       4.94485981       8.97364476      29.26317440  F      -0.73110371      -0.60277492      -0.55679135
Ti       2.40591720       4.10001266      29.26202529  F      -0.73241310      -0.61078222      -0.56505495
Ti       3.82503128       1.90628754      30.05406686  F       0.84030732       0.01726156      -1.04483051
Ti       1.27847079       6.77541048      30.05916124  F       0.84458475       0.02270728      -1.05304791
