100
Lattice="4.4265 -2.555641 0.0 3.767997 6.526363 -0.031456 0.0 0.0 61.781652" Properties=species:S:1:pos:R:3:move_mask:L:1:forces:R:3 job_name=BondOrder-VacuumGB-CSL13-V-V-60-d-5.27 top_level=BondOrder-VacuumGB solute=V energy=-761.22426233 stress_kbar_3x3="_JSON [[-36.56860271, -2.33357367, -0.46041138], [-2.33357368, -38.55415408, -0.38563505], [-0.46041139, -0.38563501, -24.49755534]]" pbc="T T T"
Ti       2.48200237      -0.88872090       8.02062719  F       0.11707212      -0.01963943       1.75491815
Ti       5.77444177       1.56107061       8.00514714  F      -0.07505694       0.08840261       1.75472275
Ti       4.99636267      -0.79692881       9.38344959  F       0.42143984      -0.00052613      -0.11052029
Ti       4.59717470       3.78518198       9.36765716  F      -0.21449332       0.36302163      -0.11103439
Ti       7.11007010       3.87015353      10.62603450  F      -0.15119733      -0.04762504      -0.98934909
Ti       3.81427615       1.42310804      10.64212945  F       0.03491384      -0.16128103      -0.99215555
Ti       1.67162113      -0.43313403      10.87899974  F       0.29798475      -0.26290758      -0.12273348
Ti       2.14830768       3.64272474      10.86308579  F      -0.38054464       0.12502012      -0.12255513
Ti       4.73717012       3.65939329      12.16603428  F       0.04111287      -0.12303110      -0.34218426
Ti       4.81772860      -0.73815625      12.18176275  F      -0.12678948      -0.02619291      -0.34419414
Ti       3.44909527       5.87481940      13.25091309  F      -0.08605279       0.03793371       0.03216205
Ti       2.95432208       1.80981193      13.26657843  F       0.07467178      -0.05595451       0.03231739
Ti       2.41029121      -0.95024354      13.75835237  F       0.04306145      -0.04095667       0.00725603
Ti       5.75744942       1.46826932      13.74206802  F      -0.05696192       0.01631013       0.00936240
Ti       4.27808982       3.76567878      14.95333139  F      -0.00036697       0.02020422      -0.02850923
Ti       5.13982260      -1.08292547      14.96887467  F       0.01963734       0.01033944      -0.02803960
Ti       6.92510870       3.59561872      15.84697402  F      -0.00083654      -0.00467075      -0.00320974
Ti       3.66942514       1.12416242      15.86227034  F      -0.00389194      -0.00146049      -0.00234367
Ti       6.37500027       0.88768048      16.60713708  F      -0.00240182       0.00086834       0.00461563
Ti       1.59928894      -0.70579578      16.62311158  F       0.00281580      -0.00180322       0.00456194
Ti       4.78996962       3.18119230      17.68222120  F      -0.00825515       0.00141995       0.01476561
Ti       4.37827397      -0.93231952      17.69838274  F       0.00633070      -0.00409399       0.01329015
Ti       3.17601780       5.40943065      18.47661868  F      -0.00091510       0.00354381       0.00673005
Ti       2.68897880       1.33959237      18.49179108  F       0.00219736       0.00103391       0.00917295
Ti       5.89559378       5.19838471      19.43129831  F       0.00143144      -0.00397910      -0.00082232
Ti       5.57319069       1.03418129      19.44733317  F      -0.00913266      -0.00206834      -0.00335838
Ti       0.59020088       0.91491087      20.37525091  F      -0.00364527       0.00022082      -0.00870091
Ti       3.85616815       3.37842844      20.35891154  F       0.00427790       0.00209390      -0.00633863
Ti       3.30630277       0.65175409      21.18203555  F       0.00196114       0.00571106       0.00446014
Ti       6.69720867       3.04418254      21.16618666  F       0.00566916       0.00641646       0.00437721
Ti       5.09274373       5.36093196      22.27360092  F      -0.00338676      -0.00097772       0.00723223
Ti       6.11401448       0.41960058      22.28994960  F      -0.00081348       0.00314922       0.00253839
Ti       4.54043066       2.64192739      22.97561027  F       0.00525294       0.00329570       0.01042968
Ti       4.03432534      -1.41559767      22.99244606  F       0.00091569       0.00049610       0.00268470
Ti       7.16672213       2.51182805      23.91153392  F       0.00050620      -0.00513533       0.00523383
Ti       2.60679460       0.79182845      23.92850394  F       0.00282621       0.00151267      -0.00003098
Ti       5.74137077       4.79893150      25.14959685  F       0.00332199       0.00042937      -0.00003380
Ti       5.30323842       0.70228405      25.16420806  F       0.00226200       0.00309358       0.00710192
Ti       3.61512513       2.94783452      25.58127363  F       0.00257825       0.00223200      -0.00133110
Ti       0.33473069       0.48862624      25.59515626  F       0.00439621       0.00697648       0.00485276
Ti       2.88536145       0.50905924      26.72685041  F       0.00365417       0.00882797      -0.00069323
Ti       6.78569771       2.61084864      26.71296595  F      -0.00095721       0.00317275      -0.00445063
Ti       4.92731925       5.20341709      28.02274225  F       0.00535704       0.01158157      -0.00767385
Ti       1.63424577       2.75646299      28.03846050  F       0.01433292       0.00421752      -0.00856210
Ti       4.38881864       2.42365268      28.22469638  F       0.00741393       0.00214217      -0.01723556
Ti       3.92301971      -1.65817881      28.23906465  F       0.00043087       0.00663545       0.00062966
Ti       6.90040849       2.52107323      29.50409898  F       0.00361840       0.01640323      -0.01082132
Ti       2.74543044       0.55949651      29.51479539  F      -0.00227585      -0.00165564       0.00310333
Ti       3.58836625       2.87490811      30.90247609  F       0.00892421       0.01963784      -0.00213621
Ti       0.29515253       0.43872080      30.93458963  F      -0.00573994      -0.00550719       0.00640815
Ti       5.72763487       4.74240756      30.87668008  F       0.00286415      -0.00987706       0.00800080
Ti       5.25639522       0.66284710      30.88685034  F       0.00019272       0.00153616       0.01205971
Ti       2.77051625       0.54810235      32.29267264  F      -0.01195573      -0.00846407      -0.00238929
Ti       6.89577290       2.53756807      32.27452365  F       0.00936940       0.01032007       0.01906035
Ti       3.92350108      -1.64861497      33.67766789  F      -0.00399458      -0.01396649       0.00266455
Ti       4.39511829       2.41661316      33.55658881  F       0.00357852       0.03333801       0.00511487
Ti       1.64962969       2.76633349      33.73113947  F      -0.01254734       0.00555675      -0.00383538
Ti       4.92154704       5.21581697      33.71100795  F       0.00111027      -0.00226827       0.00409376
Ti       2.83677489       0.54385461      35.10151430  F       0.00357257      -0.01451062      -0.00324271
Ti       6.80290015       2.62266265      35.07101813  F       0.02330294       0.01389901       0.00598343
V        0.33041598       0.40950299      36.20607933  F       0.00924075      -0.00352268      -0.01684750
Ti       3.68945240       2.96110928      36.16216693  F       0.01174643       0.00523117       0.00231085
Ti       5.31147670       0.56011728      36.59041816  F       0.00964968       0.01104022      -0.00671593
Ti       5.78458395       4.83613944      36.55383265  F       0.00870142       0.00316667      -0.00408517
Ti       7.23294647       2.50618172      37.82340852  F      -0.00309677       0.00654797      -0.00389235
Ti       2.49777390       0.88963976      37.85834875  F      -0.00764509      -0.00494532      -0.00136751
Ti       4.58294040       2.65374057      38.70687911  F       0.00654432       0.00343220       0.00594908
Ti       4.08687414      -1.31774156      38.67710846  F       0.00362305       0.00002504      -0.01348075
Ti       6.14862604       0.49302290      39.51897015  F       0.00224920      -0.00076318      -0.00150883
Ti       5.13892348       5.36711073      39.44266508  F      -0.00083635       0.00557017       0.00362458
Ti       3.35585715       0.68532705      40.55406557  F       0.00271125       0.00180418       0.00562098
Ti       6.69359072       3.14736907      40.53622256  F       0.00026832       0.00206806      -0.01683375
Ti       3.93578245       3.45835229      41.33258594  F      -0.00880736       0.01057132       0.01202124
Ti       0.62589983       0.97789843      41.32510691  F      -0.01200758       0.00626204       0.00281619
Ti       2.16382804      -1.23957549      42.35005171  F      -0.00075675      -0.00888888      -0.00758333
Ti       5.60169775       1.10282650      42.33632444  F      -0.00835837      -0.00106672       0.00070579
Ti       3.22147488       5.48564988      43.19632288  F       0.00678853      -0.00238285       0.00070277
Ti       2.72261467       1.44828954      43.19787237  F       0.00600341      -0.00074510      -0.00027844
Ti       4.79002140       3.27968438      44.02284307  F       0.01201050       0.01357054       0.01040234
Ti       4.46531327      -0.88273574      44.03634325  F       0.00700176       0.00178369       0.00553006
Ti       6.41785754       0.94336772      45.17962475  F      -0.00596824      -0.00144208      -0.00683562
Ti       1.61149643      -0.63386609      45.20338899  F       0.00351674       0.00326740      -0.00745604
Ti       6.97331312       3.68296513      45.79095054  F      -0.00753561      -0.00000850      -0.00602228
Ti       3.70822037       1.20990147      45.80052661  F      -0.01164163      -0.01892072      -0.01677648
Ti       4.37566123       3.76997146      46.78203084  F       0.02472728       0.00078396      -0.01268353
Ti       5.08445920      -0.98806466      46.79997540  F      -0.00392904       0.02262296      -0.01712872
Ti       5.74646507       1.50207407      48.06705143  F       0.04149536      -0.03510101      -0.01614817
Ti       2.43777237      -0.93986511      48.08673818  F      -0.05189261       0.02533863      -0.01699951
Ti       3.46026911       5.91169453      48.39092450  F      -0.01139674      -0.07547939       0.02285397
Ti       2.97664342       1.84099071      48.40343630  F      -0.06382676      -0.04362708       0.03087803
Ti       4.68226201       3.69843014      49.58783398  F       0.01162260       0.03343121       0.38082903
Ti       4.87882745      -0.76307652      49.60398401  F       0.01481478       0.02555111       0.38594045
Ti       2.14599167       3.64185163      50.93133706  F       0.16006808      -0.02773159       0.49686339
Ti       1.66726498      -0.43488290      50.94651705  F      -0.10502612       0.12399300       0.49872428
Ti       7.11128566       3.87128781      51.04339926  F       0.47807064      -0.13633995       0.17232678
Ti       3.80970493       1.42403298      51.05740646  F      -0.35345415       0.35091089       0.17408743
Ti       4.62052479       3.76760224      52.37245896  F       0.14203965      -0.23959717       0.13978506
Ti       4.96937361      -0.78279987      52.38811826  F      -0.27569328       0.01265346       0.13971982
Ti       3.48990142       5.97833260      53.73195449  F       0.04888800      -0.09118790      -1.39906997
Ti       3.02269208       1.89676720      53.74842532  F      -0.10205563      -0.00031683      -1.40139787
