64
Lattice="5.872 0.0 0.0 0.0 6.890708 0.0 0.0 0.0 43.394398" Properties=species:S:1:pos:R:3:move_mask:L:1:forces:R:3 job_name=BondOrder-VacuumGB-T1g-V-V-37-d-1.90 top_level=BondOrder-VacuumGB solute=V energy=-486.05084913 stress_kbar_3x3="_JSON [[-18.62923184, -0.00100777, 0.00151602], [-0.0010078, -27.67253074, -0.6087907], [0.00151602, -0.60879069, -19.79702497]]" pbc="T T T"
Ti       4.40461069       5.21390933      34.65211918  F       0.00146052      -0.28480040      -0.46986453
Ti       1.46739518       5.21385421      34.65211918  F      -0.00156943      -0.28462769      -0.46989766
Ti       5.87193541       3.18838572       8.54296835  F       0.00017820       0.16523206       0.95764232
Ti       2.93609395       3.18695245       8.54526825  F      -0.00042048       0.16959991       0.95126486
Ti       0.00005285       6.63634440       9.16415915  F      -0.00027463      -0.20587431       0.12947160
Ti       2.93596477       6.63624793       9.16515722  F       0.00009695      -0.20606826       0.14213196
Ti       4.40530358       1.76963028      10.45483873  F      -0.00219161       0.03234404      -0.50501330
Ti       1.46663182       1.76970608      10.45488213  F       0.00229065       0.03245663      -0.50537653
Ti       1.46745978       4.59657769      10.66712413  F       0.00021617       0.11589858      -0.34324455
Ti       4.40453435       4.59655013      10.66716752  F      -0.00015501       0.11602992      -0.34325215
Ti       5.87198238       6.72631638      11.98236494  F      -0.00011412      -0.09842178       0.02411343
Ti       2.93593541       6.72410446      11.98548933  F       0.00011382      -0.09401440       0.02296576
Ti       2.93597064       2.87697395      12.59565796  F      -0.00010325      -0.06597338       0.10865761
Ti       5.87190018       2.87690504      12.59739374  F       0.00011690      -0.06717371       0.10707815
Ti       4.40677158       5.00760154      13.75485252  F      -0.00322553       0.06219657      -0.07746328
Ti       1.46507574       5.00764977      13.75485252  F       0.00333863       0.06194338      -0.07748658
Ti       4.40646624       0.93264355      14.23600960  F       0.00022956       0.01590547       0.04380628
Ti       1.46538109       0.93271934      14.23605300  F      -0.00011870       0.01563482       0.04354997
Ti       2.93595890       3.09250152      15.41998236  F       0.00013178      -0.02492621      -0.01391058
Ti       5.87195890       3.09848954      15.42058988  F      -0.00004891      -0.02861817      -0.01661862
Ti       2.93595890       6.02200333      16.01452900  F      -0.00011956      -0.00024505      -0.03347659
Ti       5.87193541       6.02189997      16.03648657  F       0.00010796      -0.00234027      -0.04100860
Ti       4.40703582       1.29207666      17.20028093  F       0.00007561       0.00259358       0.00742197
Ti       1.46498179       1.29204909      17.20023754  F      -0.00004552       0.00257109       0.00772490
Ti       4.40993659       4.11537888      17.69883917  F      -0.00157499       0.00910259       0.03580353
Ti       1.46199882       4.11536510      17.69892596  F       0.00162149       0.00912154       0.03535930
Ti       2.93595890       6.24821150      18.84388715  F       0.00014421      -0.01043314       0.00843198
Ti       0.00011744       6.25526758      18.87708386  F      -0.00019337      -0.00781935      -0.00528777
Ti       2.93608221       2.36886003      19.44502974  F       0.00022971      -0.00303824      -0.00549569
Ti       5.87198826       2.38290330      19.46911363  F      -0.00021718      -0.00676732      -0.01203084
Ti       1.48478805       4.50955494      20.78591664  F      -0.00568065      -0.01338430      -0.00290083
Ti       4.38747619       4.50952738      20.78604683  F       0.00565518      -0.01356245      -0.00268783
Ti       4.37293712       0.43388032      21.05083944  F       0.01129370       0.01637744      -0.00664087
Ti       1.49906875       0.43406637      21.05070926  F      -0.01122502       0.01700047      -0.00681323
Ti       5.87198238       2.48535434      22.25794141  F      -0.00048331       0.00491984       0.01218973
Ti       2.93617616       2.48057219      22.22296553  F       0.00042510      -0.00268685       0.01455885
Ti       0.00090429       5.92667039      22.88876577  F      -0.00001921      -0.01071017      -0.00024607
V        2.93518966       5.92417595      22.84159606  F      -0.00032564      -0.00252496      -0.00131896
Ti       4.35409974       3.93468385      24.08449841  F       0.00626477      -0.00540910      -0.00134461
Ti       1.51809403       3.93438066      24.08454181  F      -0.00611643      -0.00590474      -0.00111190
Ti       4.39139282       1.04731871      24.32104128  F      -0.00499873      -0.00242724      -0.00039675
Ti       1.48081270       1.04748409      24.32104128  F       0.00504424      -0.00250757      -0.00022703
Ti       0.00012918       5.83846933      25.68362537  F      -0.00005967      -0.00252079      -0.02245135
Ti       2.93600587       5.81710813      25.62803715  F      -0.00008339       0.00172597      -0.00178069
Ti       2.93617029       2.81375170      26.25291648  F      -0.00002603       0.00735387      -0.00686801
Ti       5.87195302       2.79732426      26.22327811  F       0.00006539       0.00591751      -0.00260858
Ti       4.40123429       0.67929289      27.40573206  F       0.00144153      -0.01008424       0.00271992
Ti       1.47079507       0.67931356      27.40577545  F      -0.00131958      -0.00993536       0.00257193
Ti       1.47549267       4.73886392      27.90398653  F       0.00278570       0.00069653      -0.02535356
Ti       4.39657192       4.73891216      27.90398653  F      -0.00277946       0.00052959      -0.02537571
Ti       2.93600587       2.57567085      29.09277607  F      -0.00008364      -0.03020109      -0.03944763
Ti       5.87197064       2.57913688      29.07008080  F       0.00014909      -0.03636440      -0.02698899
Ti       2.93600000       6.54193481      29.68710574  F      -0.00003700       0.03993608       0.00341680
Ti       0.00001174       6.54233448      29.67361009  F       0.00003120       0.03734968       0.01459758
Ti       4.40581445       4.38091921      30.86925593  F       0.00380293       0.02077700       0.02246400
Ti       1.46615032       4.38089164      30.86929933  F      -0.00370206       0.02080213       0.02223972
Ti       4.40625485       1.56033192      31.34967531  F       0.00853631       0.00928314      -0.02756175
Ti       1.46570405       1.56032503      31.34967531  F      -0.00838173       0.00934202      -0.02748056
Ti       2.93598826       6.32159064      32.51195087  F       0.00002957      -0.08088454       0.74890114
Ti       0.00000587       6.32121855      32.50344557  F       0.00003572      -0.08182170       0.74668989
Ti       5.87195890       3.28242321      33.11825740  F       0.00019828       0.29627853       0.23119772
Ti       2.93602936       3.27898475      33.11960262  F      -0.00017752       0.28553277       0.23443485
Ti       1.46743629       1.15062420      34.43466986  F       0.00524322       0.05875636      -0.76623402
Ti       4.40465179       1.15065177      34.43466986  F      -0.00548272       0.05886206      -0.76613953
