64
Lattice="5.871999 0.0 0.0 0.0 6.890708 0.0 0.0 0.0 43.401158" Properties=species:S:1:pos:R:3:move_mask:L:1:forces:R:3 job_name=BondOrder-VacuumGB-T1m-V-V-37-d-1.42 top_level=BondOrder-VacuumGB solute=V energy=-483.83526504 stress_kbar_3x3="_JSON [[-19.56299424, 0.0010032, 0.00086479], [0.0010032, -23.91226467, -0.82660143], [0.0008648, -0.82660141, -22.47581309]]" pbc="T T T"
Ti       2.93803121       0.09899880       7.99983165  F       0.00311444      -0.11803633       1.03576125
Ti       2.93628723       2.93174819      35.38422630  F      -0.00328430       0.16551674      -1.57939829
Ti       5.86998490       0.09901947       7.99987505  F      -0.00301576      -0.11813964       1.03573716
Ti       5.87179935       2.93179642      35.38426970  F       0.00318677       0.16563650      -1.57963806
Ti       4.40404623       5.02782576       9.41119390  F      -0.00015326       0.41133678      -0.28482087
Ti       1.46801149       5.02737098       9.40954466  F       0.00001501       0.40654443      -0.28237255
Ti       4.40403448       1.33182226      10.02966040  F      -0.00006436      -0.47626987      -0.64984866
Ti       1.46801737       1.32979639      10.02709974  F       0.00006133      -0.47910548      -0.63855177
Ti       2.93574700       3.42424087      11.22306205  F      -0.00135644       0.22913143       0.55512158
Ti       0.00028186       3.42423398      11.22310545  F       0.00124645       0.22916966       0.55470960
Ti       2.93645752       6.24076953      11.61922782  F      -0.00148866       0.00499866      -0.35876865
Ti       5.87161732       6.24079020      11.61918442  F       0.00142231       0.00474133      -0.35863608
Ti       1.46799388       1.51027782      12.85043187  F       0.00018132      -0.00740414       0.03467343
Ti       4.40401687       1.51358536      12.85108288  F      -0.00011363      -0.01115046       0.03444023
Ti       1.46795865       4.46513744      13.45323055  F       0.00032406      -0.02432333      -0.02770720
Ti       4.40406384       4.46491694      13.45930671  F      -0.00025121      -0.02008649      -0.02199584
Ti       2.93892376       6.62542952      14.61612118  F      -0.00107138       0.01527447      -0.03730989
Ti       5.86911585       6.62542952      14.61607778  F       0.00074245       0.01535419      -0.03708076
Ti       2.93792552       2.55809955      15.12539037  F       0.00210022       0.01592110       0.02718359
Ti       5.87008473       2.55799619      15.12534696  F      -0.00219139       0.01651569       0.02740175
Ti       4.40398163       4.72770787      16.30373181  F       0.00019713       0.00646142      -0.00881451
Ti       1.46798801       4.72584738      16.29314192  F      -0.00001473       0.00448717      -0.00988051
Ti       4.40399925       0.76559900      16.90870055  F      -0.00000584       0.01118555      -0.01472416
Ti       1.46798213       0.76355935      16.88561113  F       0.00011416       0.01245733      -0.01396507
Ti       0.00717558       2.93205138      18.08578335  F      -0.00024050      -0.01681420      -0.02750949
Ti       2.92879456       2.93209272      18.08582675  F       0.00028692      -0.01718486      -0.02765989
Ti       0.00106870       5.76960359      18.56319609  F      -0.00205923       0.01417551       0.00213009
Ti       2.93496016       5.76961737      18.56319609  F       0.00197187       0.01438629       0.00218191
Ti       1.46791754       1.00440338      19.71554024  F       0.00009085      -0.00494132       0.01428229
Ti       4.40407559       0.99120767      19.75065177  F      -0.00016460      -0.00492243       0.00877853
Ti       1.46801737       4.06047372      20.33678441  F       0.00012782       0.00447464       0.01965268
Ti       4.40398751       4.07601227      20.28413881  F      -0.00014567       0.00514190       0.02534642
Ti       2.87609337       2.17960674      21.84263099  F       0.00383506       0.01049817       0.00647226
Ti       0.05987677       2.17973766      21.84267439  F      -0.00389238       0.01092744       0.00653576
Ti       2.92259960       6.17341975      21.68378275  F      -0.00199338      -0.00187072      -0.00092055
Ti       0.01343513       6.17341286      21.68378275  F       0.00193161      -0.00240294      -0.00105079
Ti       4.40358821       4.14571867      23.08407771  F       0.00017871       0.00776696       0.00557157
V        1.46848713       4.16809280      23.13355503  F       0.00017748      -0.00338288      -0.00294901
Ti       4.40416367       0.81492958      23.70927139  F       0.00019560      -0.00658133      -0.00867347
Ti       1.46779423       0.80875551      23.75154412  F       0.00001750      -0.01243772      -0.00602415
Ti       2.91793723       5.63941744      24.87945342  F       0.00474683      -0.00204769      -0.00788946
Ti       0.01814448       5.63915560      24.87941002  F      -0.00489291      -0.00137327      -0.00765634
Ti       2.91983389       2.83348669      25.21789565  F      -0.00284527      -0.00758593      -0.00648170
Ti       0.01618910       2.83349358      25.21780884  F       0.00263594      -0.00801628      -0.00652888
Ti       4.40405797       0.70415456      26.49371609  F       0.00029741      -0.01832240       0.04039447
Ti       1.46795865       0.69190977      26.51927937  F      -0.00004364      -0.01202133       0.03574644
Ti       4.40392291       4.61826964      27.09082922  F       0.00031517       0.00421245       0.00360052
Ti       1.46808196       4.61478295      27.11378843  F      -0.00019628      -0.00268791       0.00304066
Ti       5.86796494       2.47939388      28.26044703  F       0.00310580       0.02712679      -0.03104593
Ti       2.94008054       2.47929741      28.26040362  F      -0.00311001       0.02751485      -0.03077110
Ti       5.86805302       6.55530968      28.76941241  F       0.00289973       0.04755163       0.00272186
Ti       2.94000420       6.55528212      28.76932560  F      -0.00292032       0.04761929       0.00319296
Ti       1.46806434       4.40553971      29.93629594  F      -0.00006426      -0.12325451      -0.02412772
Ti       4.40400512       4.40493332      29.92219056  F       0.00000871      -0.12600710      -0.02333625
Ti       1.46804085       1.46252521      30.53553573  F      -0.00024747       0.05873664       0.06312029
Ti       4.40402861       1.46604636      30.53662076  F       0.00006894       0.05650414       0.06560756
Ti       2.93754971       6.20273971      31.75037754  F       0.00165571       0.02673042       0.07643379
Ti       5.87050751       6.20276728      31.75042094  F      -0.00162232       0.02670224       0.07622407
Ti       2.93814278       3.39198547      32.17336523  F       0.00031879      -0.21852869       0.38603199
Ti       5.86990270       3.39204748      32.17336523  F      -0.00024254      -0.21869008       0.38590843
Ti       4.40414018       1.29575630      33.35088205  F      -0.00064509       0.07837706       0.52104356
Ti       1.46793516       1.29497075      33.35257469  F       0.00056873       0.08749126       0.50855504
Ti       4.40408146       5.02606174      33.97572852  F       0.00006145      -0.10441192       0.27628661
Ti       1.46795277       5.02513150      33.97295084  F       0.00013455      -0.10266888       0.27224926
