52
Lattice="4.6568 0.0 0.0 0.0 7.770572 0.0 0.0 0.0 41.044546" Properties=species:S:1:pos:R:3:move_mask:L:1:forces:R:3 job_name=BondOrder-VacuumGB-CSL7-V-V-29-d-2.09 top_level=BondOrder-VacuumGB solute=V energy=-392.30818302 stress_kbar_3x3="_JSON [[-24.33867266, 0.42424444, -1.96838867], [0.42424442, -27.44540349, 0.43230713], [-1.96838865, 0.43230709, -20.55127409]]" pbc="T T T"
Ti       1.81373046       7.39596049       8.22233077  F       1.06945790      -0.13153506       0.85059509
Ti       4.63327850       5.59673894       8.88462556  F      -0.10670459      -0.07383261       0.02143300
Ti       2.45935387       2.27510692       9.12896374  F      -0.59154128       0.30696219       0.69012200
Ti       4.56650930       0.62205760       9.60056558  F      -0.29799130      -0.38122270       0.23751156
Ti       2.35876234       5.00801710      10.34601662  F      -0.05691022       0.00559311      -0.38684792
Ti       0.02571485       3.33324125      10.53843345  F       0.01373515       0.28266901       0.06550995
Ti       2.31268796       0.01060683      11.17146349  F      -0.03503611       0.16351426      -0.48119639
Ti       0.03554535       6.10158523      11.61458040  F      -0.00772468      -0.03377006      -0.22804306
Ti       2.34430297       2.76076767      12.12558500  F       0.02556543      -0.08572660      -0.19523444
Ti       0.00971874       1.11138606      12.52273203  F      -0.03746815      -0.08418750       0.11101842
Ti       2.35513935       5.56093992      13.14242258  F       0.04023653       0.03984646      -0.04544913
Ti       0.01749560       3.86664440      13.47960353  F       0.00010736      -0.00159802      -0.02976452
Ti       2.34621692       0.55574354      14.10680524  F      -0.00451126      -0.00556691      -0.01754280
Ti       0.03227628       6.63050476      14.44665408  F       0.02137956       0.01707064      -0.04400475
Ti       2.34667794       3.30973527      15.06527748  F       0.02535311      -0.02536635      -0.02385715
Ti       0.02869054       1.65800695      15.45951034  F       0.00028547      -0.04041524      -0.02269778
Ti       2.37444178       6.09106388      15.97305970  F      -0.00065581      -0.00912792      -0.02072551
Ti       4.65303731       4.41335076      16.41847511  F      -0.01351914       0.01717637      -0.00134654
Ti       2.37695645       1.08478739      17.04604622  F       0.00114000       0.01502984      -0.02035707
Ti       0.05827054       7.17580465      17.24330631  F       0.01044208      -0.00844889       0.03013922
Ti       2.25737449       3.80374162      17.98063053  F       0.01542207       0.00750737       0.02334910
Ti       0.13616018       2.13187974      18.42538923  F       0.00847340      -0.00255276       0.00197791
Ti       2.34314343       6.60045596      18.72033534  F       0.00238648      -0.01563894       0.02921655
Ti       4.17996231       4.76332178      19.39227560  F      -0.00367543      -0.02046430      -0.01033013
Ti       2.69680410       1.65507744      20.07591356  F      -0.00721629      -0.01570661       0.00583825
Ti       0.38067012       7.63786617      20.07090613  F      -0.00031046       0.00210065      -0.01383504
Ti       1.35457930       4.78713082      20.80273038  F       0.00588873      -0.00221087       0.00695484
Ti       3.17300847       6.51395395      21.45615956  F      -0.00376747      -0.00154127      -0.00294799
Ti       0.56671393       2.22982003      21.63162499  F      -0.01330475       0.00255720      -0.00375109
V        3.17543001       3.78304858      22.13909976  F       0.00658037      -0.00357582      -0.00359357
Ti       0.70530961       7.25783081      22.86669642  F      -0.00761676       0.00354801      -0.01189760
Ti       2.99304178       1.14660229      23.00423670  F       0.00667812       0.00354908       0.00000837
Ti       0.74006797       4.47127261      23.61678550  F       0.00351935      -0.00344718      -0.00724656
Ti       3.02657540       6.13219352      24.11633867  F       0.00282878       0.00838441       0.01109925
Ti       0.69407276       1.70354250      24.62200748  F      -0.01171972       0.00841935       0.00824953
Ti       3.05303533       3.34581404      24.97544206  F      -0.00826431      -0.01117468       0.00171387
Ti       0.71586658       6.66070120      25.64980395  F      -0.01542829      -0.02004798      -0.00204789
Ti       3.04554254       0.58388078      25.95008585  F       0.00815493       0.00949063      -0.01669912
Ti       0.72572968       3.89501476      26.57855994  F       0.00403383       0.03943463       0.03289528
Ti       3.04887681       5.58189715      26.92899827  F      -0.02688576      -0.00136059      -0.00128991
Ti       0.72686594       1.13096790      27.54770376  F       0.08869287       0.04003265      -0.01545145
Ti       3.05480492       2.78174045      27.92785835  F      -0.02048802      -0.01257186      -0.00209007
Ti       0.70756816       6.11236302      28.46225833  F       0.02312463      -0.06820556       0.09036531
Ti       3.08504152       0.02489691      28.88674103  F       0.00189476       0.00984968       0.24228696
Ti       0.71974569       3.34541774      29.52514790  F      -0.02809532       0.00019272       0.28223184
Ti       3.04398252       5.01930774      29.72663557  F       0.06011409       0.25256919       0.45227877
Ti       0.83740906       0.62536009      30.46597098  F      -0.19163238       0.13095079       0.09945181
Ti       2.94782425       2.28004901      30.92731168  F       0.37073486       0.16631383      -0.19301841
Ti       0.76947100       5.59744606      31.19024304  F      -0.07754994      -0.24251466       0.26805727
Ti       3.58988521       7.39955827      31.84465728  F      -1.28991657      -0.13685976      -0.17940179
Ti       0.37383393       2.79627919      32.55460479  F       0.32248512      -0.14119734      -1.29989443
Ti       2.70369617       4.57016867      32.55854507  F       0.71921903       0.04710595      -0.28174202
