64
Lattice="5.088765 0.0 0.0 0.0 9.739025 0.0 0.0 0.0 38.303587" Properties=species:S:1:pos:R:3:move_mask:L:1:forces:R:3 job_name=BondOrder-VacuumGB-T2-V-V-42-d-3.50 top_level=BondOrder-VacuumGB solute=V energy=-481.65730594 stress_kbar_3x3="_JSON [[-17.34337304, 3.42477873, 0.43796502], [3.42477871, -20.93211184, 3.99792686], [0.43796504, 3.99792682, -20.89706059]]" pbc="T T T"
Ti       2.58328102       9.31451064       8.40809699  F       0.75660313       0.06434275       0.89762083
Ti       0.03924964       4.44541692       8.40549235  F       0.75231079       0.06385230       0.90120419
Ti       1.31428551       1.99240973       8.93032809  F      -0.77319142      -0.30694900       0.49342496
Ti       3.86403157       6.86212675       8.93745256  F      -0.78148320      -0.32229918       0.48979055
Ti       2.64121661       4.24302050       9.67276652  F      -0.05191218      -0.26162103       0.20799071
Ti       0.09605044       9.11498723       9.67249840  F      -0.05654217      -0.25912097       0.20931717
Ti       0.99509782       6.30022397      10.48989694  F       0.04862962       0.19018396      -0.73700167
Ti       3.53799440       1.43535698      10.48361515  F       0.04024709       0.19061154      -0.73842295
Ti       0.25268263       3.53135099      11.10283094  F       0.11704887       0.24624098      -0.42500945
Ti       2.79602702       8.39862351      11.10489934  F       0.11756865       0.25091127      -0.41855523
Ti       1.10531029       0.86240040      11.85587946  F      -0.07358201       0.04889925      -0.18472354
Ti       3.65124486       5.72855294      11.86342527  F      -0.08113392       0.05251731      -0.18928345
Ti       2.75331192       3.12231194      12.53810465  F       0.01588200      -0.13017366       0.00457381
Ti       0.20674634       7.99083106      12.53500206  F       0.01712838      -0.13346439       0.00362254
Ti       3.59986360       0.42146605      13.18539697  F       0.01235536       0.04864893      -0.01477588
Ti       1.05457530       5.28849509      13.19175536  F       0.01209838       0.04186016      -0.01080796
Ti       2.73708894       7.49789031      13.93335111  F      -0.01141058      -0.02599212       0.04337747
Ti       0.19292526       2.62968284      13.93323620  F      -0.01540777      -0.03474593       0.03600275
Ti       3.61283995       4.83045901      14.68256927  F       0.00302754       0.01023711      -0.00373420
Ti       1.06587745       9.70614605      14.66560078  F       0.00450086       0.00787646      -0.00504031
Ti       0.17036676       7.04684684      15.24881120  F       0.00519262      -0.00347528       0.00012443
Ti       2.71597566       2.17565923      15.25034334  F       0.00807503       0.00254266      -0.00039778
Ti       1.11428687       4.45290623      16.00009775  F       0.00685671       0.00002040      -0.01115890
Ti       3.66542725       9.33427112      15.99680365  F      -0.00259269      -0.00143953      -0.00539835
Ti       0.31925385       1.78682866      16.72246510  F      -0.01230462      -0.00842652      -0.00202469
Ti       2.85736190       6.64792664      16.71737072  F      -0.01847037      -0.01320455       0.00440089
Ti       0.92936115       8.62278665      17.34305982  F      -0.00416347       0.01580781       0.00673793
Ti       3.45157190       3.72597566      17.38124849  F      -0.01563567       0.01164158      -0.00177743
Ti       2.58319451       0.95143457      18.24166197  F      -0.00492371      -0.00003763       0.02164138
Ti       0.04084752       5.80744878      18.21055946  F      -0.01608729       0.00659071       0.00905591
Ti       3.83986503       8.06188698      19.00336710  F      -0.00478689      -0.01055420      -0.01511609
Ti       1.26840521       3.20093509      19.04033006  F      -0.01000515      -0.00682496      -0.00481014
Ti       0.02570844       0.75400505      19.31653723  F      -0.00741446      -0.00849282       0.00308207
Ti       2.56736845       5.62080037      19.33476974  F      -0.00392559      -0.00910467      -0.00213257
Ti       3.79579123       3.28255785      20.12263622  F       0.00266801      -0.01895761       0.00379351
Ti       1.29916679       8.18401436      20.06529575  F      -0.00289004      -0.01128013       0.00440247
Ti       2.15062913       1.09337112      21.00729586  F       0.00121132       0.00246166      -0.01078741
Ti       4.72524907       6.06852282      20.92900333  F      -0.00572601      -0.00774838      -0.00421802
Ti       1.63839913       4.21206988      21.63375103  F      -0.00395732       0.01626622       0.00577065
Ti       4.28453149       9.07132719      21.62593710  F       0.00360378       0.01599586       0.00488945
Ti       5.02439212       1.98525155      22.35190498  F      -0.01950761      -0.00489371      -0.00840991
Ti       2.44140116       6.98163433      22.33811569  F      -0.02610681       0.00000131      -0.01407625
V        1.34691468       9.44341637      23.19531166  F       0.00682970      -0.00500241      -0.02895891
Ti       3.94294814       4.55831170      23.09698635  F       0.02005633      -0.00107600      -0.01177875
Ti       4.98075087       7.13238470      23.57168271  F       0.00561237      -0.00171703       0.04866037
Ti       2.43226174       2.25936615      23.57034208  F       0.00766080       0.01351815       0.04619982
Ti       1.44727021       4.88771474      24.31952194  F      -0.02499902       0.01943845      -0.00073475
Ti       3.93968115       9.71611881      24.29179014  F      -0.01698923       0.03022926       0.01302680
Ti       2.29439692       7.54029402      25.06617376  F       0.03974851      -0.01741462       0.02565218
Ti       4.84354759       2.64460302      25.08314225  F       0.04799389      -0.00181439       0.02371925
Ti       4.07675213       5.38690794      25.78915397  F       0.01046211      -0.01733664       0.13768515
Ti       1.50938368       0.53524707      25.74491332  F       0.01324530      -0.02524177       0.13065219
Ti       4.91198639       8.04271084      26.46452281  F      -0.12255564       0.03002403       0.18162646
Ti       2.37171053       3.17021820      26.46594004  F      -0.11746602       0.03013359       0.18136027
Ti       1.43995765       5.79067818      27.17566721  F       0.16160053       0.09231657       0.53323582
Ti       3.97603020       0.90645975      27.15843059  F       0.15470101       0.08184882       0.51734552
Ti       2.37448899       8.37567837      27.83514007  F       0.09806104       0.24412291       0.34936293
Ti       4.92119197       3.49231697      27.84138355  F       0.09427997       0.25259204       0.34060046
Ti       1.50611160       1.28879440      28.53238026  F      -0.25384326       0.32256819       0.17123325
Ti       4.05338452       6.16584490      28.53889187  F      -0.24519832       0.30852595       0.18186916
Ti       4.85841187       8.88663631      29.20901312  F      -0.69352621      -0.57098987      -0.42367433
Ti       2.31945400       4.01844832      29.21104321  F      -0.68776483      -0.58994842      -0.42601234
Ti       3.86923738       1.88474481      30.03717498  F       0.79081273       0.04498954      -1.25491827
Ti       1.33146010       6.75808475      30.04249918  F       0.78943104       0.05152966      -1.27931377
