64
Lattice="5.088765 0.0 0.0 0.0 9.739025 0.0 0.0 0.0 38.303587" Properties=species:S:1:pos:R:3:move_mask:L:1:forces:R:3 job_name=BondOrder-VacuumGB-T2-V-V-53-d-6.97 top_level=BondOrder-VacuumGB solute=V energy=-481.27755927 stress_kbar_3x3="_JSON [[-19.62110919, 0.67301043, 0.04852631], [0.67301043, -21.74453733, 0.01344181], [0.04852633, 0.01344184, -22.29204592]]" pbc="T T T"
Ti       2.53292260       9.26666281      29.94011369  F      -0.82788795       0.03725221      -0.95599779
Ti       0.00589279       4.38931039      29.91805082  F      -0.80284880      -0.02817935      -0.99365706
Ti       1.26209514       1.88716009       8.23814397  F      -0.83299223       0.03276908       1.09746641
Ti       3.82281258       6.75338080       8.25197157  F      -0.84416683       0.02833869       1.08392275
Ti       2.71144157       4.07437954       9.01287232  F       0.76429410      -0.57956714       0.62166522
Ti       0.16444853       8.95045615       9.04125528  F       0.78319059      -0.58407992       0.56609678
Ti       1.04294239       6.21826033       9.76718486  F       0.23931318       0.13701040      -0.14096775
Ti       3.57148865       1.35105598       9.76220540  F       0.24355054       0.14176552      -0.15962471
Ti       0.22292862       3.49986472      10.39444440  F      -0.11269112       0.30882068      -0.36802857
Ti       2.76560638       8.36972782      10.40742932  F      -0.12349863       0.30101977      -0.37256837
Ti       1.10654177       0.87840162      11.14714819  F      -0.11931916       0.11823770      -0.43974158
Ti       3.65502073       5.74225575      11.14232194  F      -0.11837268       0.14062280      -0.46806402
Ti       2.75762211       3.11284560      11.83132686  F       0.12689644      -0.01017878      -0.17390092
Ti       0.21299535       7.98093621      11.83653615  F       0.12070930      -0.01851737      -0.18142716
Ti       3.60928291       0.43932742      12.50037562  F      -0.05630893      -0.00690083      -0.15306965
Ti       1.06647792       5.30766150      12.50236740  F      -0.06350346      -0.01280044      -0.15827726
Ti       2.75495051       7.52460445      13.22450493  F      -0.01604148      -0.01329928      -0.01914642
Ti       0.21063416       2.65496534      13.22565404  F      -0.01720828      -0.00758724      -0.02431703
Ti       3.61250918       4.86995076      13.94652754  F       0.03784522      -0.01649549      -0.00175720
Ti       1.06625911       0.00119790      13.94771496  F       0.04042390      -0.00870900      -0.01186800
Ti       0.21513263       7.06917843      14.61450380  F       0.00872045       0.01866368      -0.04244416
Ti       2.76100614       2.19827324      14.61611255  F      -0.00082093       0.02562798      -0.04267747
Ti       1.10732544       4.43550259      15.30373854  F      -0.01182986      -0.00680964      -0.01830332
Ti       3.65237457       9.30547282      15.30312569  F      -0.01089728       0.00354842      -0.00852905
Ti       0.23137597       1.80385247      16.04728777  F      -0.00119277       0.01439668       0.00135756
Ti       2.77448628       6.67232290      16.04077616  F      -0.00079214       0.01604662       0.00295267
Ti       1.04448428       8.82258275      16.68404660  F      -0.01996822      -0.00004854       0.00639054
Ti       3.58401719       3.95393702      16.68810678  F      -0.01481611      -0.00195302       0.01413673
Ti       2.71433707       1.22701002      17.43020048  F       0.00501015       0.00634441       0.02289773
Ti       0.16802593       6.09370794      17.42062458  F       0.01516947       0.01590378       0.00556831
Ti       3.82309246       8.29790251      18.18872641  F       0.01178036      -0.02316359       0.00456005
Ti       1.27729019       3.42661751      18.19627222  F       0.00926426      -0.01795783       0.00330625
Ti       0.01428925       0.92510998      18.81782452  F       0.00509794      -0.01226456       0.00656077
Ti       2.55021422       5.79263572      18.81418568  F      -0.01402098      -0.00990787      -0.00155727
Ti       3.82672584       3.43403865      19.43581460  F      -0.00086941      -0.00892327      -0.00868637
Ti       1.28348831       8.30646312      19.42888165  F      -0.00409703      -0.01327977       0.00685384
Ti       2.38514995       1.25408451      20.22961813  F      -0.00670850      -0.00127267      -0.02147573
Ti       4.92861648       6.11398459      20.20468250  F      -0.01331208       0.00195723       0.00444565
Ti       1.49310472       3.94973950      20.95018521  F      -0.00016369       0.03364219      -0.01024757
Ti       4.04115113       8.83011101      20.93352315  F       0.00342572       0.01744533      -0.01653734
Ti       4.87429900       1.80437838      21.60272512  F       0.01964723      -0.00515689       0.00029444
Ti       2.32491933       6.66268126      21.58211779  F       0.01991448       0.01619544      -0.00124704
Ti       1.43160190       9.30053514      22.29858639  F      -0.01000815      -0.00318193       0.01408887
Ti       3.98214181       4.41764122      22.29161513  F      -0.00553737      -0.00253891       0.03229900
Ti       4.87151544       7.05533927      23.00245310  F       0.01653568      -0.01249212       0.00403638
Ti       2.34125427       2.20029896      23.05948714  F      -0.01292761      -0.01999053       0.00802777
Ti       1.49858532       4.86251014      23.70072749  F      -0.02766625       0.01687248       0.01026699
Ti       4.04482013       0.00252241      23.65790408  F      -0.01662338       0.02616612       0.03770557
Ti       2.32960608       7.55114329      24.38854500  F       0.01070150      -0.03561966      -0.05182978
Ti       4.88473097       2.68808777      24.42382261  F       0.02552286      -0.00543141      -0.02237907
Ti       3.94000683       5.29246862      25.12730629  F      -0.01382661       0.01768613       0.03395867
Ti       1.43920961       0.46877823      25.13760995  F      -0.03481385       0.04619426       0.03966059
Ti       4.89060340       7.96453569      25.77072994  F      -0.02877871      -0.06984706       0.04446068
V        2.38076853       3.09794490      25.75724708  F       0.01235565      -0.09822721      -0.00365055
Ti       1.42094603       5.67779314      26.39676377  F       0.02878991       0.03008228       0.16785593
Ti       3.91408975       0.86264388      26.41733279  F       0.03342587      -0.00755327       0.21240783
Ti       2.30093089       8.33829999      27.18359605  F      -0.05171424       0.27708770       0.47297102
Ti       4.84685529       3.45024439      27.15885193  F      -0.05152982       0.25146208       0.41146681
Ti       1.52717909       1.37294931      27.78837139  F      -0.09334742       0.26090325       0.66036943
Ti       4.08560149       6.21547497      27.83548480  F      -0.06316628       0.26738390       0.68413786
Ti       4.91842877       8.96659371      28.56359768  F       0.17233981      -0.08324207      -0.12797817
Ti       2.39794820       4.09835702      28.50939811  F       0.11465094      -0.11885098      -0.12952999
Ti       3.80076805       1.89408454      29.33817282  F       0.79691432      -0.38416802      -0.56929261
Ti       1.27819599       6.76141550      29.33591291  F       0.77877839      -0.38125115      -0.58341013
