52
Lattice="4.6568 0.0 0.0 0.0 7.770572 0.0 0.0 0.0 41.044546" Properties=species:S:1:pos:R:3:move_mask:L:1:forces:R:3 job_name=BondOrder-VacuumGB-CSL7-Al-Al-37-d-5.94 top_level=BondOrder-VacuumGB solute=Al energy=-388.27300581 stress_kbar_3x3="_JSON [[-22.19955798, 0.00321367, -0.72078059], [0.00321367, -27.54293888, 0.4894164], [-0.72078056, 0.4894164, -17.87710016]]" pbc="T T T"
Ti       1.82019876       7.39446077       9.18211643  F       1.26613763      -0.16456260       0.17238482
Ti       4.63149029       5.59450102       9.84564256  F       0.10261225      -0.22985022      -0.28278426
Ti       2.45777522       2.27106623      10.09552176  F      -0.38016075       0.13472367       0.20504087
Ti       4.56199687       0.61811015      10.55271695  F       0.19532680       0.14343098      -0.06769333
Ti       2.35697878       5.00917491      11.30842914  F      -0.07943451       0.24516121      -0.46363291
Ti       0.02238058       3.33293820      11.49062588  F       0.03271915      -0.00130980      -0.28966191
Ti       2.30491576       0.01033486      12.12886857  F      -0.00983843       0.00719509      -0.24700014
Ti       0.02565431       6.10276636      12.56829148  F      -0.01039765      -0.06267342      -0.08644277
Ti       2.33921775       2.76322317      13.08011696  F       0.01610751      -0.01316989      -0.01144993
Ti       0.00092670       1.11845728      13.47164089  F      -0.08372786       0.02056749       0.00650203
Ti       2.34427969       5.56716414      14.09547694  F       0.02676352       0.00355706      -0.00139451
Ti       0.00606781       3.87316391      14.42695270  F      -0.00935073       0.03867504      -0.03968579
Ti       2.33498006       0.56721290      15.05788946  F      -0.00957820      -0.00578917       0.01551236
Ti       0.01655027       6.64321741      15.38743612  F       0.01329109      -0.02141023      -0.01072368
Ti       2.32849779       3.32316282      16.01102590  F       0.00666912      -0.01309049      -0.01275348
Ti       0.01017045       1.67889425      16.40558713  F       0.00926621      -0.00159442      -0.00072567
Ti       2.35733736       6.10794156      16.91552456  F       0.00028951       0.00252820      -0.00501093
Ti       4.63230523       4.42971559      17.35490643  F       0.00101945       0.00305924       0.00304692
Ti       2.35670403       1.10618755      17.99245136  F      -0.00209423      -0.00867795      -0.00453715
Ti       0.02793614       7.20335910      18.17374512  F      -0.00415973      -0.00584578       0.00872424
Ti       2.23616742       3.81867666      18.92018124  F      -0.00643358      -0.00226289      -0.00467362
Ti       0.13222518       2.16800513      19.39576439  F       0.00576364      -0.00417350       0.00271680
Ti       2.29985382       6.61312976      19.63435634  F      -0.00104752      -0.00733392       0.00703070
Ti       4.13962511       4.81021719      20.30346453  F      -0.00528795      -0.01118568       0.00313611
Ti       2.69730238       1.64805284      21.01435606  F      -0.00006248      -0.01800068       0.00468796
Ti       0.35800547       7.64456440      20.98242341  F      -0.00696236      -0.00863002       0.00633662
Ti       1.26109404       4.79039446      21.71334468  F       0.00227335      -0.01465456      -0.00310545
Ti       3.10587604       6.60503282      22.35433736  F       0.00190427      -0.01588897      -0.00494653
Ti       0.61837182       2.14582792      22.64550736  F      -0.00414441      -0.00774951      -0.00576102
Ti       3.16471937       3.81249905      23.11916143  F      -0.00545163      -0.01230116      -0.00362112
Ti       0.74068267       7.15065131      23.76713167  F      -0.00188627       0.00771880       0.00599493
Ti       3.06936673       1.06225273      24.04767115  F      -0.01258172       0.00329291      -0.00053804
Ti       0.76594115       4.42255889      24.68743248  F       0.00611003       0.01999829      -0.00475764
Ti       3.05867472       6.13297057      25.10740028  F      -0.00542878       0.00258935       0.00067254
Ti       0.74357454       1.63830855      25.62722945  F       0.01134651      -0.00040883       0.02946725
Ti       3.08605205       3.32519871      26.03131301  F      -0.02660568       0.03088236       0.03599732
Ti       0.73732511       6.72863931      26.61188811  F      -0.02434633       0.01998284       0.05513970
Al       3.06793244       0.59895569      26.95280411  F       0.01049862       0.01645101       0.04206934
Ti       0.74085963       3.97300799      27.59486394  F       0.01185767      -0.01007944       0.06501270
Ti       3.07398628       5.65763691      27.92436956  F      -0.05347620      -0.03467546       0.05546186
Ti       0.73084285       1.12141787      28.48524328  F       0.00645991      -0.08520762      -0.09054806
Ti       3.06798366       2.78841537      28.88862908  F      -0.00123945      -0.10531949       0.14498779
Ti       0.72343854       6.08617619      29.48894661  F       0.01409389       0.04569851       0.25797000
Ti       3.09931461       0.02045992      29.84714236  F       0.04082559       0.21693497       0.36772245
Ti       0.74085963       3.30515064      30.50094093  F      -0.04081617       0.25118010      -0.10139290
Ti       3.05670955       4.99009039      30.70246966  F       0.07569513       0.03880027       0.39088829
Ti       0.85410834       0.60790739      31.42990214  F       0.30096120      -0.41829885      -0.24831433
Ti       2.95626703       2.26672248      31.90335098  F       0.61291676       0.33600855      -0.61844280
Ti       0.78766978       5.57014804      32.16689801  F       0.12933921      -0.10433215       0.07037905
Ti       3.58936365       7.38053591      32.80046162  F      -1.05658078      -0.14148908      -0.85562018
Ti       0.37384790       2.78000761       8.47840769  F      -0.33758331      -0.13433308       1.26418808
Ti       2.70649491       4.55198554       8.48595989  F      -0.72157131       0.07586291       0.24414745
