64
Lattice="5.871999 0.0 0.0 0.0 6.890708 0.0 0.0 0.0 43.401158" Properties=species:S:1:pos:R:3:move_mask:L:1:forces:R:3 job_name=BondOrder-VacuumGB-T1m-Al-Al-45-d-4.84 top_level=BondOrder-VacuumGB solute=Al energy=-482.07821024 stress_kbar_3x3="_JSON [[-18.2604392, 0.00186342, -0.00121454], [0.00186344, -26.55513834, 0.55768172], [-0.00121453, 0.55768171, -17.12884278]]" pbc="T T T"
Ti       2.94377990       0.10894898      34.54376287  F      -0.00567008      -0.23516944      -0.13779675
Ti       2.93826022       2.94419970      34.54202683  F       0.00578030       0.09501892      -0.94549790
Ti       5.86428907       0.10893520      34.54376287  F       0.00436352      -0.22788344      -0.12560605
Ti       5.86979700       2.94420659      34.54202683  F      -0.00566874       0.11994023      -0.94529263
Ti       4.40402274       5.03288354       8.55784033  F       0.00015797      -0.01062053       0.92612471
Ti       1.46802911       5.03098860       8.55297940  F      -0.00011103      -0.00288510       0.92139568
Ti       4.40404035       1.32229930       9.17613323  F       0.00008142      -0.29863858       0.12137608
Ti       1.46803498       1.32135528       9.16767001  F      -0.00007654      -0.26456564       0.15553937
Ti       2.93407936       3.41311927      10.34987415  F       0.02114037       0.14856815      -0.25764835
Ti       0.00199648       3.41311927      10.34987415  F      -0.02130017       0.15006953      -0.25790121
Ti       2.93601712       6.23009582      10.76214175  F       0.01780768       0.13070720      -0.57335442
Ti       0.00006459       6.23008893      10.76214175  F      -0.01777986       0.13161462      -0.57260310
Ti       1.46802911       1.49189341      11.97954423  F       0.00000866      -0.01914899      -0.03262025
Ti       4.40402861       1.49270651      11.98371074  F      -0.00002019      -0.02348551      -0.04046531
Ti       1.46803498       4.44018619      12.58216931  F      -0.00012788      -0.00376638       0.04961952
Ti       4.40404035       4.44170903      12.58429597  F       0.00014273       0.00168070       0.04535449
Ti       2.93723262       6.59537226      13.74662238  F      -0.00490641       0.02432793      -0.10530563
Ti       5.87080111       6.59537226      13.74662238  F       0.00499143       0.02283259      -0.10637673
Ti       2.93710931       2.52022822      14.24864357  F      -0.00413596       0.03368803       0.04598981
Ti       5.87093617       2.52022822      14.24864357  F       0.00418722       0.03306000       0.04590744
Ti       4.40400512       4.67526958      15.40936414  F       0.00028894      -0.03293448       0.00184363
Ti       1.46801149       4.67227901      15.40550144  F      -0.00024611      -0.03115188      -0.00104230
Ti       4.40400512       0.73444611      16.02179788  F       0.00020459      -0.00473631       0.00345834
Ti       1.46800562       0.73679584      16.00313538  F      -0.00019662      -0.00216407      -0.00094478
Ti       0.00027011       2.89014898      17.24071941  F      -0.00038287      -0.01506153      -0.00694751
Ti       2.93568828       2.89016277      17.24071941  F       0.00061220      -0.01661033      -0.00802742
Ti       5.86448284       5.70638823      17.63549634  F      -0.00271868       0.03366726       0.02584497
Ti       2.94351566       5.70637445      17.63549634  F       0.00282205       0.03334706       0.02543322
Ti       1.46800562       0.89761119      18.80593877  F      -0.00130526      -0.01201112       0.00300955
Ti       4.40399338       0.90816775      18.84052949  F       0.00119994      -0.01339053       0.00598291
Ti       1.46799388       4.10518753      19.44458681  F      -0.00121012       0.01483840       0.00019057
Ti       4.40398163       4.09403147      19.43542916  F       0.00121435       0.00800220      -0.00337172
Ti       2.89365064       2.14168028      20.84245130  F      -0.00478908       0.00748507       0.01185609
Ti       0.04232537       2.14168028      20.84245130  F       0.00483865       0.00668927       0.01188822
Ti       2.91952854       6.18193667      20.84722543  F       0.00114895       0.00130723       0.00594359
Ti       0.01641811       6.18192288      20.84722543  F      -0.00107960       0.00086383       0.00483539
Ti       4.40399338       4.10265175      22.27807481  F      -0.00024642       0.00627408      -0.00642283
Ti       1.46798213       4.08501842      22.29204998  F       0.00035588       0.01006228      -0.00093405
Ti       4.40398163       0.88442237      22.79984353  F      -0.00028902      -0.01365519      -0.01576587
Ti       1.46800562       0.90791280      22.89237480  F       0.00045411      -0.00818965      -0.01577707
Ti       2.94400891       5.72336694      24.07210508  F       0.00422308      -0.00728757       0.01113927
Ti       5.86398959       5.72337383      24.07210508  F      -0.00425962      -0.00717095       0.01048868
Ti       2.91470176       2.85077548      24.45668274  F       0.00052816       0.00179919      -0.00925663
Ti       0.02128012       2.85076170      24.45663934  F      -0.00055614       0.00158907      -0.00953608
Ti       4.40399925       0.69225431      25.63914729  F      -0.00072522      -0.00990540      -0.00253658
Al       1.46801149       0.70356196      25.69309493  F       0.00064075      -0.03506184      -0.00184635
Ti       4.40400512       4.60135296      26.27354201  F      -0.00086554       0.03856316      -0.02430096
Ti       1.46801149       4.72058977      26.29815047  F       0.00082811       0.02023191      -0.02559728
Ti       0.02899593       2.49062573      27.43291715  F       0.00022662      -0.02240562      -0.02042023
Ti       2.90705054       2.49061884      27.43291715  F      -0.00010012      -0.02231048      -0.02073798
Ti       0.01997654       6.59925861      27.93767261  F      -0.00801054      -0.00153936      -0.05374536
Ti       2.91608168       6.59925861      27.93767261  F       0.00787699      -0.00125808      -0.05475371
Ti       1.46804085       4.45228627      29.09405307  F       0.00132026      -0.05510051      -0.04843164
Ti       4.40404035       4.44683572      29.08346319  F      -0.00134207      -0.04335616      -0.03408234
Ti       1.46802324       1.50993328      29.73986230  F       0.00042265       0.03992429      -0.02136825
Ti       4.40402274       1.49739219      29.69706876  F      -0.00038421       0.03057084      -0.00829512
Ti       2.94211225       6.22618190      30.91047833  F       0.00389511       0.00478487       0.02179570
Ti       5.86593323       6.22618190      30.91047833  F      -0.00374746       0.00526302       0.01773286
Ti       2.93762604       3.42075417      31.33824015  F       0.01620279      -0.01295062      -0.05073612
Ti       5.87045466       3.42075417      31.33828355  F      -0.01604824      -0.01017454      -0.04566514
Ti       4.40403448       1.31885395      32.50095717  F      -0.01495269      -0.02209333       0.73358725
Ti       1.46804085       1.32309173      32.52678086  F       0.01546488      -0.02956371       0.74845666
Ti       4.40401687       5.03836166      33.13465748  F      -0.01393216       0.17745634       0.31685741
Ti       1.46802324       5.03711444      33.12923233  F       0.01375426       0.18201962       0.31936026
