100
Lattice="4.4265 -2.555641 0.0 3.767997 6.526363 -0.031456 0.0 0.0 61.781652" Properties=species:S:1:pos:R:3:move_mask:L:1:forces:R:3 job_name=BondOrder-VacuumGB-CSL13-Al-Al-50-d-0.00 top_level=BondOrder-VacuumGB solute=Al energy=-756.65139405 stress_kbar_3x3="_JSON [[-35.69605225, -1.63663663, -0.15435824], [-1.63663662, -36.02609837, -0.04438826], [-0.15435825, -0.04438824, -23.85860136]]" pbc="T T T"
Ti       2.49392366      -0.87122117       8.02535802  F       0.11460795      -0.02097882       1.76900075
Ti       5.78480599       1.57974777       8.00962983  F      -0.07558529       0.08857684       1.76910125
Ti       5.00993175      -0.78033693       9.38947767  F       0.42291787      -0.01546070      -0.12103582
Ti       4.60562170       3.80409587       9.37387289  F      -0.22499582       0.35772145      -0.12109781
Ti       7.11722105       3.88635237      10.62318084  F      -0.14524688      -0.05288894      -1.00255644
Ti       3.82554255       1.43606935      10.63878465  F       0.02677499      -0.15292443      -1.00308337
Ti       1.67968962      -0.41830031      10.88603417  F       0.30475652      -0.24870235      -0.12039954
Ti       2.15788304       3.65648833      10.87049164  F      -0.36811298       0.13876326      -0.12051846
Ti       4.75308892       3.66814572      12.17196224  F       0.03676842      -0.13068477      -0.33814968
Ti       4.81887620      -0.72046668      12.18738032  F      -0.13106030      -0.03395279      -0.33681830
Ti       3.45454771       5.88274014      13.24172940  F      -0.08413420       0.03901913       0.03892749
Ti       2.95930619       1.81728952      13.25752088  F       0.07565224      -0.05493632       0.04007005
Ti       2.41359537      -0.93913327      13.76856106  F       0.04213482      -0.04261720       0.00770558
Ti       5.76724795       1.47603034      13.75320199  F      -0.05812781       0.01409209       0.00740014
Ti       4.27094028       3.77636774      14.95497578  F      -0.00305409       0.02234882      -0.03091404
Ti       5.15257636      -1.08410187      14.97101467  F       0.02153923       0.00870704      -0.03175691
Ti       6.92442011       3.59347534      15.83870446  F       0.00077482      -0.00418025      -0.01135710
Ti       3.66988356       1.12327992      15.85461164  F      -0.00486436      -0.00075392      -0.01258244
Ti       6.37482123       0.88886287      16.61633865  F      -0.00352302      -0.00330856       0.00226943
Ti       1.60296923      -0.70496198      16.63181210  F      -0.00105325      -0.00464217       0.00363223
Ti       4.79361780       3.17568361      17.67803235  F      -0.00281679       0.00467579       0.01585539
Ti       4.37095635      -0.93188868      17.69598697  F       0.00627975      -0.00492241       0.01509539
Ti       3.17238321       5.40662125      18.47119963  F      -0.00134475      -0.00227187       0.01224302
Ti       2.69019438       1.33230328      18.48711949  F      -0.00240905      -0.00410484       0.01038743
Ti       5.89344797       5.19106971      19.43905194  F       0.00035655      -0.01005689       0.00173161
Ti       5.56908664       1.03088588      19.45544705  F      -0.00757470      -0.00326805       0.00097500
Ti       0.58815373       0.90711252      20.36681929  F      -0.00219192      -0.00215310      -0.00421500
Ti       3.84903632       3.36763979      20.34815364  F       0.00160607       0.00376340      -0.00938431
Ti       3.29820120       0.64521490      21.18022265  F      -0.00005541      -0.00402710      -0.00042734
Ti       6.70399498       3.03084039      21.16504688  F       0.00320563       0.00399475       0.00136885
Ti       5.08216840       5.35475936      22.28315968  F       0.00017120       0.00196426       0.00265021
Ti       6.11370048       0.40685097      22.29846043  F      -0.00018470      -0.00134350       0.00242115
Ti       4.53650091       2.62745394      22.95769233  F      -0.00228120      -0.00027583      -0.00347547
Ti       4.02476864      -1.43558513      22.97888452  F      -0.00251274      -0.00325202      -0.00233289
Ti       7.14935901       2.50538881      23.91505321  F       0.00074734       0.00820685      -0.00712114
Ti       2.61807799       0.77092117      23.92979160  F       0.00433849      -0.00748304       0.00329837
Ti       5.72445493       4.78480268      25.16722922  F       0.00948681       0.01159885       0.00060211
Ti       5.28637310       0.70266679      25.18123183  F      -0.00040443      -0.00312535       0.00365337
Ti       3.59710312       2.92029961      25.55058173  F      -0.00226091      -0.00327372      -0.00736393
Ti       0.32925958       0.48587645      25.58368623  F       0.00191868       0.00195720      -0.00385534
Ti       2.86845189       0.49577956      26.73768371  F      -0.00184613       0.00610589      -0.00035561
Ti       6.79867631       2.59048546      26.70720500  F       0.01309335       0.01614742       0.00905906
Ti       4.89701781       5.19654655      28.02270676  F       0.00981529       0.00445625       0.00603953
Ti       1.64460213       2.73061749      28.05601652  F       0.00579604      -0.00134660       0.00296192
Ti       4.38884587       2.39689627      28.17542950  F       0.00581883       0.00748478      -0.00492856
Ti       3.91010027      -1.67858298      28.22001306  F       0.00098086       0.00442550      -0.01193567
Ti       6.86228883       2.49737968      29.49876562  F      -0.00111193       0.01331866       0.00612441
Ti       2.78559582       0.54895075      29.51907440  F       0.00731257       0.00447416       0.00021199
Ti       3.61865929       2.82796276      30.85976788  F       0.00987005       0.01589934      -0.00598690
Ti       0.26206782       0.45017337      30.87740747  F       0.01163604       0.00075879      -0.00249835
Al       5.66520840       4.72673461      30.88508398  F      -0.00538196       0.00802774       0.00870775
Ti       5.27996942       0.60485727      30.88392168  F       0.00013261       0.01238599      -0.00016935
Ti       2.77561604       0.56983634      32.24859490  F       0.00308267       0.00425870      -0.00077878
Ti       6.87468048       2.48897230      32.23668584  F       0.00524409       0.01338712      -0.00086834
Ti       3.89804360      -1.66420812      33.52876005  F      -0.00878268      -0.00027165       0.00955022
Ti       4.39174152       2.42065988      33.54644903  F       0.00655966       0.01287358       0.00487201
Ti       1.63726078       2.74506325      33.71746487  F       0.00348698       0.00274022      -0.00007014
Ti       4.89220039       5.21894178      33.72983953  F       0.00765465       0.01072578       0.00265939
Ti       2.89399652       0.50841598      35.03257466  F      -0.00413901       0.00259749       0.00352732
Ti       6.78158804       2.62395071      35.03596598  F       0.01025212       0.02119771      -0.00792584
Ti       0.34508127       0.52468880      36.15880184  F       0.00233800       0.00164970      -0.00160997
Ti       3.61021303       2.95275896      36.16390703  F      -0.00244564       0.00139370       0.00412830
Ti       5.30890864       0.72872706      36.59450942  F       0.00023810      -0.00238248      -0.00133905
Ti       5.72437145       4.82420919      36.57747847  F       0.00588076       0.01736899       0.00056383
Ti       7.19887145       2.52895278      37.82234703  F       0.00468630       0.00996495       0.00176618
Ti       2.61505306       0.82814170      37.83744410  F       0.00162274      -0.00466723      -0.00535190
Ti       4.56969059       2.69170749      38.74847214  F      -0.00312965       0.00163876      -0.00049364
Ti       4.05735728      -1.37825059      38.76048512  F      -0.00033622      -0.00334535      -0.00468207
Ti       6.12925881       0.46590787      39.47079534  F       0.00185500      -0.00288893      -0.00366414
Ti       5.12344740       5.40290835      39.45646885  F      -0.00239815       0.00469589      -0.00413315
Ti       3.35598465       0.69585224      40.57120255  F       0.00010096       0.00114025       0.00020076
Ti       6.71907779       3.10511285      40.55430057  F       0.00350599       0.00581948       0.00036985
Ti       3.89921722       3.43772932      41.36214487  F       0.00163363       0.00261753       0.01134507
Ti       0.62300660       0.98720902      41.37598737  F      -0.00190549      -0.00013806       0.00637571
Ti       5.93196486       5.26479561      42.30829560  F      -0.00103210      -0.01017598      -0.00240512
Ti       5.61449358       1.10130385      42.32419403  F      -0.00660405      -0.00390925      -0.00124988
Ti       3.22849323       5.48144991      43.22319843  F       0.00094382      -0.00161497       0.00537470
Ti       2.72626249       1.41722383      43.24011214  F      -0.00252486      -0.00112452       0.00691315
Ti       4.80794020       3.26775522      44.04509019  F       0.00495159       0.00789790       0.00018986
Ti       4.44311357      -0.87259890      44.05871790  F       0.00471716       0.00520822       0.00109800
Ti       6.42001751       0.94890808      45.17960022  F      -0.00662118       0.00030775      -0.01379382
Ti       1.63245179      -0.63596629      45.19457985  F       0.00374521      -0.00587020      -0.01539244
Ti       6.97745290       3.67371800      45.82730294  F      -0.01163243      -0.01041860      -0.01706983
Ti       3.71287817       1.20936163      45.84370422  F      -0.00376491      -0.01412479      -0.01645809
Ti       4.36719938       3.79115542      46.79062135  F       0.02071871       0.00476401      -0.01585242
Ti       5.11781453      -0.99377364      46.80591924  F      -0.00550209       0.01998216      -0.01571939
Ti       5.76564414       1.51131107      48.06419784  F       0.04375606      -0.02788073      -0.00419641
Ti       2.44507046      -0.92241985      48.07949321  F      -0.04633252       0.02415183      -0.00390690
Ti       3.47154023       5.92266039      48.42113435  F      -0.01255096      -0.07033445       0.02472581
Ti       2.98523914       1.85241348      48.43698629  F      -0.05378143      -0.04854363       0.02382571
Ti       4.70597038       3.70977724      49.59194463  F       0.01216893       0.02308659       0.38868889
Ti       4.87836190      -0.74045277      49.60767188  F       0.01318034       0.02020095       0.38808599
Ti       2.16003915       3.65658359      50.93428179  F       0.17160993      -0.02657717       0.47357895
Ti       1.67873221      -0.41626824      50.95013273  F      -0.10784938       0.13468923       0.47359727
Ti       7.12192671       3.88796036      51.05987426  F       0.48582951      -0.13687239       0.16718330
Ti       3.82477818       1.44087897      51.07572504  F      -0.36277776       0.35179957       0.16754221
Ti       4.63173648       3.78827884      52.37878611  F       0.14299706      -0.23163394       0.15176079
Ti       4.98320722      -0.76558625      52.39457602  F      -0.27160413       0.00722532       0.15199308
Ti       3.50096759       5.99469879      53.73811218  F       0.04965069      -0.09057215      -1.38031546
Ti       3.03294260       1.91420473      53.75377768  F      -0.10305445      -0.00197559      -1.37981333
