52
Lattice="5.088765 0.0 0.0 0.0 5.495746 0.0 0.0 0.0 48.722931" Properties=species:S:1:pos:R:3:move_mask:L:1:forces:R:3 job_name=BondOrder-VacuumGB-C1-V-V-30-d-2.59 top_level=BondOrder-VacuumGB solute=V energy=-395.84207362 stress_kbar_3x3="_JSON [[-35.57456129, -0.02653135, -0.01737808], [-0.02653131, -25.62995136, 0.44981765], [-0.01737807, 0.44981763, -30.33045893]]" pbc="T T T"
Ti       2.62329398       0.79825711      40.07977538  F       0.08751238       0.00415144      -1.03640412
Ti       0.03375378       1.60270792       8.74435315  F       0.11355509      -0.02450088       0.66440989
Ti       0.81698595       4.34901463       8.74635079  F      -0.11801835      -0.01338400       0.67149561
Ti       2.57135295       2.35853237       9.96028262  F      -0.40136579       0.10336179      -0.13624859
Ti       3.36830953       5.10532271       9.95989283  F       0.40535180       0.09866715      -0.14240517
Ti       0.81148500       0.39055519      11.20203524  F      -0.08076601      -0.08548898      -0.61213435
Ti       0.03558064       3.13847765      11.20529967  F       0.07852880      -0.06666051      -0.61045368
Ti       3.37181060       1.18221740      12.45255798  F      -0.03795435      -0.01456171       0.01011283
Ti       2.56480880       3.93250303      12.44997567  F       0.04747822      -0.02021808       0.01764439
Ti       0.01693541       4.70314402      13.69309253  F      -0.00880104       0.01267182       0.17772715
Ti       0.83819084       1.95309470      13.69304381  F       0.00647678       0.02130635       0.18770453
Ti       3.37742860       2.73738162      14.94059445  F      -0.00036413      -0.00044889       0.03626286
Ti       2.56738372       5.48562833      14.94785417  F       0.00808895      -0.00531190       0.03269521
Ti       0.83538184       3.53406145      16.18765787  F      -0.01614734      -0.01590686      -0.03892011
Ti       0.01882334       0.78619394      16.19067869  F       0.00229839      -0.01011667      -0.03684249
Ti       2.56223389       1.56442455      17.43325960  F       0.01578205      -0.01405977      -0.05950066
Ti       3.38815571       4.30832962      17.43939869  F      -0.00932378      -0.01074019      -0.05216693
Ti       0.83712220       5.08257032      18.67579179  F      -0.00307711       0.01054321      -0.02732991
Ti       0.03663402       2.33271885      18.68753402  F       0.00897587      -0.00162141      -0.02202154
Ti       3.36841639       0.38057491      19.92680177  F      -0.00578662       0.00218499      -0.01164753
Ti       2.57822279       3.12755211      19.93854399  F       0.00284955       0.01079785      -0.01243617
Ti       0.02594252       3.88499780      21.15851746  F      -0.00364095      -0.01961624       0.01026555
Ti       0.83745297       1.13465172      21.19062587  F       0.00802966      -0.02326920       0.02603842
Ti       2.63500832       4.63634322      22.37902688  F       0.01133081      -0.01456187       0.04909048
Ti       3.38271073       1.89749973      22.37829604  F      -0.00160982      -0.01393929       0.02521278
Ti       0.77034233       2.70280239      23.84115332  F       0.01490232       0.00757854      -0.07383004
Ti       0.04205864       5.49077785      23.87374896  F      -0.01073677       0.00806798      -0.08022806
Ti       3.41285658       2.02163764      25.13810902  F      -0.03800388       0.02759613      -0.07567900
Ti       2.47531778       4.78188706      25.11043440  F      -0.01202106       0.01734550      -0.07993172
Ti       0.07904379       3.96331219      26.33552377  F       0.01414909       0.02349850       0.01088732
V        0.70143028       1.23825203      26.27788455  F       0.01600282       0.01479876      -0.00263621
Ti       3.29517380       0.37047923      27.52387606  F      -0.00709620      -0.01744915       0.07983302
Ti       2.52344223       3.08162965      27.56144144  F      -0.00609805       0.00278516       0.06015523
Ti       0.85667323       5.12520082      28.77741963  F       0.00126850       0.00402607       0.07289887
Ti       5.08669896       2.33753312      28.71778276  F      -0.02889119       0.00028531       0.07724402
Ti       2.58827819       1.58526442      30.03593294  F       0.00550255      -0.00679468       0.03043085
Ti       3.38447145       4.33949600      29.98024263  F       0.02201205       0.01601017       0.01411657
Ti       0.01526121       0.77349328      31.26492015  F       0.01898206       0.00718064      -0.03057887
Ti       0.80509860       3.53051120      31.22886518  F      -0.00452778      -0.02324595      -0.01048374
Ti       3.38695476       2.73582083      32.52509003  F      -0.02490691       0.02243336      -0.07314482
Ti       2.55987270       5.47477973      32.49580755  F      -0.00287576       0.00318075      -0.06626766
Ti       0.85258695       1.96343769      33.73887569  F       0.01857432       0.00929548      -0.14658789
Ti       0.02620205       4.70998072      33.74886389  F      -0.00674321       0.01113109      -0.13649990
Ti       2.57490491       3.93393193      35.01000824  F       0.00916482       0.00250376      -0.22908730
Ti       3.36877261       1.18361332      34.99212692  F       0.00640100       0.00257736      -0.21861028
Ti       0.81969827       0.38589480      36.24654750  F       0.01814513      -0.00629373      -0.01311265
Ti       0.03989592       3.13231692      36.24123671  F      -0.03376372      -0.02042735      -0.02883858
Ti       2.57787675       2.36136268      37.48922586  F       0.10014371      -0.08778576       0.92567799
Ti       3.37891452       5.10926865      37.48966437  F      -0.10819115      -0.08923899       0.91305116
Ti       0.81958122       4.35163061      38.70223195  F       0.32471552       0.08906472       0.50160743
Ti       0.03722432       1.60527443      38.70408342  F      -0.31759356       0.08140012       0.51234880
Ti       3.31486732       3.54406920      40.08391683  F      -0.07791769      -0.00880195      -1.04288299
