64
Lattice="5.871999 0.0 0.0 0.0 6.890708 0.0 0.0 0.0 43.401158" Properties=species:S:1:pos:R:3:move_mask:L:1:forces:R:3 job_name=BondOrder-VacuumGB-T1m-Al-Al-48-d-6.60 top_level=BondOrder-VacuumGB solute=Al energy=-482.03153174 stress_kbar_3x3="_JSON [[-18.31409809, 0.00057143, 0.00029031], [0.00057142, -25.75911663, 0.15682783], [0.00029032, 0.15682783, -18.13126459]]" pbc="T T T"
Ti       2.93603473       0.10540027      34.53612427  F       0.00016096      -0.26733821      -0.20001666
Ti       2.93605235       2.94530910      34.52666282  F      -0.00002832       0.12540247      -1.00748980
Ti       0.00000587       0.11712825      34.53534305  F      -0.00009270      -0.30463278      -0.20096010
Ti       0.00004110       2.95198620      34.53069912  F      -0.00003898       0.17230454      -0.96868793
Ti       4.40914899       5.03639781       8.54703345  F      -0.01848992      -0.02250430       0.93787981
Ti       1.46290873       5.03640470       8.54703345  F       0.01850325      -0.02261949       0.93812004
Ti       4.39836213       1.32227863       9.16098623  F       0.02680843      -0.26193902       0.17702376
Ti       1.47366623       1.32227174       9.16102963  F      -0.02681058      -0.26226602       0.17672426
Ti       2.93601124       3.41480749      10.34431880  F      -0.00017496       0.13354306      -0.26883674
Ti       0.00001762       3.41518648      10.34670586  F       0.00024050       0.12400917      -0.26828848
Ti       2.93601712       6.22891062      10.75589198  F      -0.00024006       0.14274390      -0.57019820
Ti       0.00004110       6.23053683      10.75702041  F       0.00024685       0.15165372      -0.56722102
Ti       1.46786469       1.49396751      11.97477010  F       0.00113696      -0.02449892      -0.01972455
Ti       4.40418715       1.49397440      11.97477010  F      -0.00116936      -0.02449937      -0.01975891
Ti       1.46717180       4.44093727      12.58056347  F       0.00136828      -0.00538365       0.04805416
Ti       4.40486831       4.44094416      12.58056347  F      -0.00134429      -0.00559126       0.04805726
Ti       2.93601712       6.59512419      13.74371450  F       0.00001713       0.04985504      -0.12099500
Ti       0.00001174       6.59744636      13.74323709  F       0.00000509       0.04663143      -0.11707260
Ti       2.93602299       2.51924974      14.24347883  F      -0.00001791       0.01722741       0.03395038
Ti       0.00001174       2.51973898      14.24673392  F       0.00001766       0.01236636       0.03497337
Ti       4.40481546       4.67563479      15.40762810  F       0.00101005      -0.02440952      -0.01174677
Ti       1.46717180       4.67564857      15.40762810  F      -0.00092982      -0.02451801      -0.01171499
Ti       4.40513842       0.73355032      16.01290065  F      -0.00049442      -0.00003619      -0.02670144
Ti       1.46688994       0.73355032      16.01290065  F       0.00032854      -0.00000399      -0.02682047
Ti       5.87198726       2.88932210      17.23425263  F       0.00005139      -0.00820683      -0.00598278
Ti       2.93599363       2.88864681      17.22709144  F      -0.00004648      -0.00767269       0.00342291
Ti       5.87198138       5.70895158      17.64643343  F       0.00007112       0.02238473       0.03259912
Ti       2.93599950       5.70460354      17.64187631  F      -0.00002522       0.03056339       0.03722988
Ti       1.47415360       0.91363208      18.82638071  F      -0.00468463       0.00119630       0.00348023
Ti       4.39782191       0.91361830      18.82642411  F       0.00468860       0.00124487       0.00325023
Ti       1.47186940       4.09018645      19.44554163  F      -0.00095296       0.00137449      -0.00980251
Ti       4.40010024       4.09019335      19.44554163  F       0.00100503       0.00133482      -0.00974114
Ti       2.93597601       2.13546486      20.87539278  F      -0.00001687       0.00562307      -0.00392637
Ti       0.00001174       2.12935280      20.85998537  F       0.00003062       0.01151060       0.00530645
Ti       2.93598188       6.18648453      20.83693936  F      -0.00002013       0.00778343       0.00406432
Ti       0.00000000       6.18554740      20.85898715  F      -0.00000272       0.00453164      -0.00275883
Ti       4.41551424       4.10543559      22.27338748  F      -0.00000197      -0.00081612      -0.00734995
Ti       1.45650238       4.10542870      22.27338748  F      -0.00001362      -0.00082858      -0.00735303
Ti       4.41271917       0.91226772      22.89046515  F      -0.00327558      -0.01400707      -0.00267020
Ti       1.45926222       0.91227461      22.89042175  F       0.00333894      -0.01414907      -0.00194378
Ti       2.93602299       5.71997671      24.08551603  F      -0.00006947      -0.00378332       0.02547486
Ti       0.00000000       5.70274994      24.10951687  F       0.00006410      -0.00303575       0.00740075
Ti       2.93600537       2.89202326      24.41384579  F      -0.00000897      -0.00830452       0.01545026
Ti       0.00000000       2.88950815      24.48198561  F       0.00003455      -0.00897883       0.00010357
Ti       4.39183834       0.73617568      25.72043766  F       0.01090467      -0.00765956      -0.01488654
Ti       1.48019002       0.73618946      25.72052446  F      -0.01090494      -0.00785765      -0.01586573
Ti       4.42438096       4.64941564      26.28309027  F      -0.01764143       0.01741216      -0.01385061
Ti       1.44765327       4.64937430      26.28313367  F       0.01759250       0.01778157      -0.01447910
Al       0.00006459       2.51467431      27.42319529  F      -0.00063565      -0.00544997       0.02712685
Ti       2.93598188       2.47189679      27.41863817  F       0.00064043      -0.01180276       0.02081070
Ti       0.00001762       6.61771882      27.94969473  F      -0.00009712      -0.00913816      -0.02814230
Ti       2.93602886       6.51119537      27.95455566  F       0.00010788       0.02912612      -0.03056372
Ti       1.43022518       4.40137083      29.09761196  F       0.01808707      -0.02221041      -0.01472092
Ti       4.44187364       4.40137083      29.09769876  F      -0.01816919      -0.02221128      -0.01567703
Ti       1.45965564       1.48064777      29.66894481  F       0.00825944       0.00567501       0.01784025
Ti       4.41236685       1.48063399      29.66898821  F      -0.00813048       0.00576432       0.01731386
Ti       2.93605235       6.23420958      30.92076441  F      -0.00007898      -0.01193305       0.02611472
Ti       0.00002936       6.24903149      30.88508865  F       0.00011312       0.01763875       0.04704741
Ti       2.93602299       3.40537411      31.32396116  F      -0.00007873       0.00304674      -0.04480199
Ti       0.00004110       3.42240105      31.37326488  F       0.00005914      -0.01812305      -0.02295817
Ti       4.38951890       1.31799950      32.49318836  F       0.01907330      -0.07905142       0.70905218
Ti       1.48255644       1.31798572      32.49323176  F      -0.01906631      -0.07895835       0.70869756
Ti       4.41449251       5.04294398      33.11990108  F      -0.00402565       0.21726290       0.28353718
Ti       1.45760044       5.04295087      33.11990108  F       0.00381281       0.21742716       0.28360205
