100
Lattice="4.4265 -2.555641 0.0 3.767997 6.526363 -0.031456 0.0 0.0 61.781652" Properties=species:S:1:pos:R:3:move_mask:L:1:forces:R:3 job_name=BondOrder-VacuumGB-CSL13-V-V-58-d-4.19 top_level=BondOrder-VacuumGB solute=V energy=-761.1224651 stress_kbar_3x3="_JSON [[-36.50260239, -2.57132783, -0.05973054], [-2.57132784, -39.05268644, -0.56836941], [-0.05973057, -0.56836936, -24.06784376]]" pbc="T T T"
Ti       2.47325679      -0.90679236       8.00458576  F       0.10553838      -0.02553056       1.77162632
Ti       5.76414672       1.54290172       7.98861504  F      -0.07614206       0.07873696       1.77213983
Ti       4.98083514      -0.81195490       9.37939694  F       0.41350906      -0.00382050      -0.13410902
Ti       4.59247497       3.76307779       9.36391641  F      -0.20676360       0.35712683      -0.13413694
Ti       7.10053330       3.85258238      10.63390241  F      -0.14619345      -0.04804079      -0.96540971
Ti       3.80460645       1.40438667      10.64926041  F       0.03011593      -0.14740846      -0.96419302
Ti       1.65948517      -0.45188472      10.86636583  F       0.31253446      -0.26467606      -0.10835235
Ti       2.13852600       3.62197959      10.85039240  F      -0.38332945       0.13951464      -0.10753846
Ti       4.71784315       3.65085082      12.16085406  F       0.04797282      -0.12222312      -0.33958547
Ti       4.82133685      -0.75960972      12.17651955  F      -0.13269723      -0.02011031      -0.34058273
Ti       3.44346668       5.86880163      13.26305580  F      -0.08298513       0.03581212       0.04008745
Ti       2.95214693       1.80091274      13.27866256  F       0.07201117      -0.05091380       0.04033798
Ti       2.40769445      -0.96063968      13.74937525  F       0.04524461      -0.04611767       0.00299190
Ti       5.74982203       1.46022069      13.73334004  F      -0.05941505       0.01781479       0.00465604
Ti       4.28747928       3.75702940      14.95593789  F       0.00234371       0.01382510      -0.02646377
Ti       5.12696242      -1.07846796      14.97166557  F       0.01487262       0.00397484      -0.02733829
Ti       6.92847423       3.59763496      15.86481461  F      -0.00205699      -0.00630946      -0.01339109
Ti       3.66857550       1.12856878      15.88023464  F       0.00120797      -0.00664847      -0.01012589
Ti       6.37734514       0.88692709      16.60861767  F      -0.00746895       0.00023928       0.00191582
Ti       1.59785274      -0.70429655      16.62477726  F      -0.00006371      -0.00623147      -0.00254162
Ti       4.78791500       3.18262219      17.69241429  F      -0.01185347       0.00757467       0.00493854
Ti       4.38150579      -0.93413320      17.70789693  F       0.00516011       0.00230943       0.00766036
Ti       3.17808003       5.40883174      18.49181482  F      -0.00326142      -0.00038275      -0.00431014
Ti       2.68690328       1.34125186      18.50698770  F       0.00379099      -0.00119360       0.00160139
Ti       5.89539101       5.19632633      19.43946135  F       0.00412294      -0.00470806      -0.00892098
Ti       5.57082852       1.03312598      19.45518819  F      -0.00086516      -0.00460983      -0.01017596
Ti       0.58666839       0.91215565      20.38626538  F       0.00956248       0.00915119      -0.01004586
Ti       3.85730598       3.37706667      20.37028192  F       0.00328552      -0.00127260      -0.01027915
Ti       3.30566983       0.64831683      21.19230505  F       0.00317427       0.00841780       0.00166192
Ti       6.69631664       3.04104278      21.17750591  F      -0.00126871       0.01671891      -0.00396120
Ti       5.09285952       5.35705371      22.28448827  F       0.00728071       0.00970987      -0.00390116
Ti       6.11191424       0.41855939      22.29971925  F       0.00217726       0.00604643      -0.00200509
Ti       4.54347609       2.64122203      22.98604756  F      -0.00845084       0.00705727      -0.00204014
Ti       4.03546686      -1.41671792      23.00146785  F      -0.00479964       0.00577353      -0.00042068
Ti       7.16708752       2.51123421      23.91870198  F      -0.00194053       0.01260927      -0.00242826
Ti       2.60750829       0.79444463      23.93349731  F       0.00929735       0.00495891       0.00313442
Ti       5.74044485       4.81088287      25.15826679  F       0.01416696       0.00816908       0.00182039
Ti       5.30640342       0.70864515      25.17356927  F      -0.00418499       0.00740457       0.00357185
Ti       3.61959177       2.96051869      25.58486357  F      -0.00440632      -0.00460644       0.00353440
Ti       0.33768650       0.50032919      25.60215089  F      -0.00097924       0.01237988       0.00054842
Ti       2.88612661       0.53050254      26.73004572  F       0.00952441       0.00733347      -0.00610890
Ti       6.78810947       2.62736456      26.71555782  F       0.00648297       0.00331496      -0.01452030
Ti       4.93038270       5.23100834      28.02164761  F      -0.00758780       0.00646458      -0.00437320
Ti       1.64000506       2.78477766      28.03865503  F      -0.00234423      -0.00688995      -0.00504484
Ti       4.39523807       2.45181247      28.22495187  F      -0.00578629       0.00332090      -0.00161136
Ti       3.92463112      -1.62927933      28.23611486  F       0.01033465       0.01875506       0.00272136
Ti       6.90141537       2.55474226      29.50521080  F       0.00940318      -0.00049651       0.01055295
Ti       2.74846380       0.59838268      29.51903499  F       0.00749080      -0.00472039       0.00308718
Ti       3.59655904       2.91522731      30.91300147  F       0.01098335      -0.00196886       0.00604595
Ti       0.28343599       0.48344268      30.92228143  F       0.00908388       0.00277017       0.00527044
Ti       5.72578178       4.78440209      30.87393731  F       0.00373165      -0.00139277       0.00634370
Ti       5.26353462       0.69973683      30.87959720  F      -0.00918057      -0.00870826      -0.00062746
Ti       2.76876449       0.60934771      32.28738881  F      -0.00047778       0.00022208      -0.00723393
Ti       6.89039269       2.57901454      32.26610631  F       0.00813385       0.00367877      -0.00784449
Ti       3.90321327      -1.55990812      33.63105333  F       0.01056963       0.00621287       0.00103065
Ti       4.40131338       2.45137663      33.61736692  F      -0.00785006       0.00365677      -0.00320827
Ti       1.65617711       2.77833843      33.72725195  F      -0.00027868      -0.00357711      -0.01141183
Ti       4.94021519       5.29311000      33.72409621  F      -0.01001362       0.00245808      -0.01227277
V        2.84831196       0.59958571      35.01578296  F       0.00744576      -0.00146258      -0.00767084
Ti       6.83317488       2.65253882      35.02877364  F       0.01220074       0.01094041       0.02016832
Ti       0.39762331       0.56040044      36.19334616  F      -0.00455946       0.00492593       0.00306308
Ti       3.58854269       2.95793470      36.19797524  F      -0.00885967       0.00395322      -0.01003741
Ti       5.24238847       0.76881194      36.49101908  F       0.01129844      -0.00343504       0.00440745
Ti       5.79572779       4.87249237      36.48225839  F       0.00455966       0.00071978       0.00055495
Ti       7.16014647       2.56227495      37.80117807  F       0.00722679       0.00481132       0.00648097
Ti       2.68617958       0.80004249      37.81558830  F       0.00675987       0.00023722       0.01330284
Ti       4.56300335       2.65560092      38.77283502  F       0.00396670      -0.00220005       0.00574159
Ti       4.06931425      -1.41137253      38.80475378  F      -0.00235635      -0.00866425       0.00604401
Ti       6.14244316       0.44177114      39.39857054  F      -0.00717968       0.00457850      -0.00936223
Ti       5.12238080       5.38199586      39.39618599  F       0.00021161       0.01789797       0.00816631
Ti       3.32530783       0.67438793      40.56584560  F       0.00356059       0.01108962       0.00717149
Ti       6.74094224       3.05374021      40.54418489  F       0.00473814       0.00184226       0.01146221
Ti       3.88965126       3.40125726      41.37693893  F      -0.00107779       0.00030366      -0.00470038
Ti       0.62476372       0.93554128      41.39087451  F       0.01127422       0.00906170       0.00877237
Ti       5.93172908       5.22470324      42.26364932  F      -0.00182451      -0.01530152      -0.00466347
Ti       5.61502830       1.06193267      42.28121164  F      -0.00476353      -0.00451047      -0.00357559
Ti       3.22022889       5.43930983      43.22979330  F      -0.00907203      -0.00676516       0.00310266
Ti       2.72961042       1.37333073      43.24909860  F      -0.00701321      -0.00098062       0.00028285
Ti       4.83397152       3.21957211      44.03835228  F      -0.01449590       0.00874390       0.00283024
Ti       4.42706925      -0.89611545      44.05315248  F      -0.00408556       0.00624521       0.00913634
Ti       6.41598954       0.93034926      45.15310960  F      -0.01367640      -0.00159864      -0.01880697
Ti       1.64460569      -0.66718309      45.16482679  F       0.00241155      -0.01110159      -0.01092818
Ti       6.98131267       3.64312163      45.83630205  F      -0.01686437      -0.02102617      -0.01929836
Ti       3.70712643       1.17368956      45.85601616  F       0.00255475      -0.02691000      -0.01468675
Ti       4.35554071       3.77722844      46.77191441  F       0.01072504       0.00119359      -0.00919208
Ti       5.14207102      -1.02900186      46.78690543  F      -0.01762663       0.02247461      -0.00717358
Ti       5.77153146       1.48515677      48.03783755  F       0.03457409      -0.02355452       0.00491544
Ti       2.43351570      -0.94047056      48.05697049  F      -0.04150187       0.02495235       0.00010381
Ti       3.46589836       5.89623583      48.42674021  F      -0.01901301      -0.08270490       0.01953108
Ti       2.98076037       1.82819770      48.44375559  F      -0.04568791      -0.05857958       0.02500278
Ti       4.70540625       3.68023830      49.57636005  F       0.01597456       0.01509671       0.40200813
Ti       4.86197794      -0.76080591      49.58708279  F       0.00927646       0.02761766       0.40383612
Ti       2.14504439       3.62724868      50.91347515  F       0.18624456      -0.02104000       0.45597239
Ti       1.66502267      -0.44496158      50.92814723  F      -0.10631775       0.13821391       0.45533215
Ti       7.10865920       3.86048242      51.05462628  F       0.48333662      -0.15784457       0.17644870
Ti       3.81059095       1.40918084      51.07290371  F      -0.36800761       0.35592082       0.16587293
Ti       4.60971626       3.75710026      52.36714448  F       0.15444657      -0.19914406       0.15478317
Ti       4.96853938      -0.80141872      52.38188557  F      -0.24353991       0.03117187       0.16523347
Ti       3.48056776       5.96059195      53.73790736  F       0.05085274      -0.08628332      -1.40547629
Ti       3.01305398       1.87866281      53.75320628  F      -0.09657906       0.00015957      -1.40492069
