64
Lattice="5.871999 0.0 0.0 0.0 6.890708 0.0 0.0 0.0 43.401158" Properties=species:S:1:pos:R:3:move_mask:L:1:forces:R:3 job_name=BondOrder-VacuumGB-T1m-V-V-40-d-3.20 top_level=BondOrder-VacuumGB solute=V energy=-484.94565224 stress_kbar_3x3="_JSON [[-18.10359732, -0.00029919, -0.00068062], [-0.00029921, -23.4615107, 0.47003401], [-0.0006806, 0.47003405, -22.80101081]]" pbc="T T T"
Ti       2.93597601       6.88667005       8.19769753  F       0.00029721      -0.11311986       1.18279537
Ti       2.93599363       2.81100231      35.20142062  F      -0.00061392       0.11574911      -1.24632219
Ti       0.00007634       6.88662870       8.19982418  F      -0.00023214      -0.11194517       1.17688816
Ti       0.00002936       2.81207037      35.19938077  F       0.00064885       0.11017111      -1.25138437
Ti       4.40357059       4.79562269       9.38984053  F       0.00077614       0.27980226      -0.19684144
Ti       1.46849887       4.79575361       9.38953673  F      -0.00110631       0.27929995      -0.19614496
Ti       4.40344728       1.59584663      10.00835044  F       0.00149613      -0.44631990      -0.38227347
Ti       1.46859282       1.59576394      10.00826363  F      -0.00149012      -0.44611155      -0.38169568
Ti       2.93598776       3.56388796      11.41480836  F      -0.00007102       0.11665348      -0.03486681
Ti       0.00004698       3.56324712      11.41433095  F       0.00008009       0.11946156      -0.03192399
Ti       2.93601124       6.39644441      11.43607493  F       0.00007214       0.32003004      -0.22224319
Ti       0.00000587       6.39765028      11.43637874  F      -0.00001823       0.31466521      -0.22486425
Ti       1.46879247       1.60076659      12.84413870  F      -0.00071735      -0.10140975      -0.01637820
Ti       4.40320066       1.60080105      12.84405190  F       0.00079414      -0.10182092      -0.01559778
Ti       1.46777661       4.75351357      13.46299581  F      -0.00005373      -0.10084655      -0.06739348
Ti       4.40425175       4.75347223      13.46290901  F       0.00007253      -0.10049491      -0.06710609
Ti       2.93598776       6.85167214      14.63617251  F       0.00021458      -0.01471916      -0.00687813
Ti       0.00001174       6.85285045      14.63456667  F      -0.00011635      -0.01928141      -0.00665567
Ti       2.93601712       2.77215939      15.06593078  F       0.00002000       0.02924295       0.05538328
Ti       0.00001762       2.77318611      15.06627799  F      -0.00000843       0.03025888       0.05860632
Ti       4.40499749       4.93061855      16.28064239  F      -0.00100846       0.02155521      -0.01782057
Ti       1.46705436       4.93061166      16.28068579  F       0.00090943       0.02157782      -0.01777331
Ti       4.40492115       0.97114882      16.88578473  F      -0.00493731      -0.00246449      -0.03409780
Ti       1.46712482       0.97116260      16.88578473  F       0.00490404      -0.00239222      -0.03386347
Ti       5.87198726       3.13285350      18.04550708  F       0.00019992       0.01670720       0.00923810
Ti       2.93605235       3.13084141      18.04290301  F      -0.00023585       0.02063290       0.00950270
Ti       0.00002936       5.94618487      18.55685952  F      -0.00003242      -0.00505930       0.01159573
Ti       2.93605235       5.94936838      18.55490647  F      -0.00012771       0.00145535       0.00533174
Ti       1.46669029       1.22051665      19.72465448  F      -0.00251770       0.00305927      -0.00544048
Ti       4.40536743       1.22053733      19.72461108  F       0.00254351       0.00312333      -0.00491183
Ti       1.46910956       4.14485733      20.31742750  F       0.00277947       0.00221617      -0.00782935
Ti       4.40292467       4.14483666      20.31738409  F      -0.00273753       0.00241228      -0.00674086
Ti       2.93598776       2.24307705      21.97648016  F       0.00082656       0.01293346       0.00263553
Ti       0.00006459       2.24222260      21.95256612  F      -0.00059444       0.01333293       0.00648106
Ti       2.93596427       6.31495489      21.51538626  F       0.00033763      -0.00624665      -0.00508697
Ti       0.00003523       6.29731468      21.54246858  F      -0.00028898      -0.00741044       0.00087709
Ti       4.34675900       4.35886894      23.16397925  F       0.00387426      -0.00645221      -0.00284075
Ti       1.52525174       4.35874491      23.16371884  F      -0.00429016      -0.00534440      -0.00110897
Ti       4.37532041       0.56620948      23.72302956  F       0.00462988       0.00533058       0.00032551
Ti       1.49673144       0.56640242      23.72276915  F      -0.00487726       0.00362385       0.00377621
V        2.93595252       5.61785642      25.11898441  F      -0.00047613      -0.01628909      -0.00971841
Ti       5.87194615       5.50248529      25.11724836  F       0.00172319       0.00718586       0.00040757
Ti       2.93598776       2.72233957      25.13256897  F      -0.00018364      -0.00294654       0.00418572
Ti       5.87191092       2.63577850      25.13287278  F       0.00054375       0.00081484      -0.00943675
Ti       4.37765159       0.56966172      26.52791620  F      -0.00476055       0.00074044       0.04605093
Ti       1.49435328       0.56984777      26.52826341  F       0.00420526      -0.00083900       0.04162080
Ti       4.34772788       4.39175140      27.08813835  F       0.00139420       0.00241008      -0.01091695
Ti       1.52437094       4.39153779      27.08857236  F      -0.00230393       0.00459108      -0.01484229
Ti       0.00012331       2.27608354      28.28522909  F      -0.00152154       0.01449726      -0.01235381
Ti       2.93588206       2.27278978      28.26248688  F       0.00198672       0.02585001      -0.02086332
Ti       0.00009395       6.33529626      28.71871985  F      -0.00096439       0.03123773      -0.02067735
Ti       2.93594078       6.35382538      28.74580218  F       0.00088431       0.03142157      -0.02154485
Ti       1.46984943       4.18361067      29.93230303  F      -0.00415076      -0.11178401       0.05470632
Ti       4.40215544       4.18354866      29.93256344  F       0.00423778      -0.11128433       0.05118507
Ti       1.46610897       1.27012975      30.52637808  F      -0.00880730       0.11441962       0.10620527
Ti       4.40595463       1.27007463      30.52663849  F       0.00871359       0.11553555       0.10317870
Ti       2.93611107       5.99800300      31.69859996  F      -0.00098537       0.02982367       0.23668456
Ti       5.87191092       5.99389614      31.69452025  F       0.00119936       0.02631953       0.24626010
Ti       2.93616392       3.18110224      32.20973540  F      -0.00128930      -0.26263882       0.40044920
Ti       5.87191092       3.18346575      32.20643691  F       0.00114252      -0.27224405       0.40892469
Ti       4.40495051       1.02354577      33.36351178  F      -0.00293951       0.37104057       0.09033919
Ti       1.46707785       1.02340795      33.36377219  F       0.00300526       0.37311855       0.08818568
Ti       4.40484482       4.96829694      33.97251683  F       0.00287324      -0.31096423       0.10297876
Ti       1.46723052       4.96834517      33.97273384  F      -0.00292784      -0.31187233       0.10163844
