64
Lattice="5.088765 0.0 0.0 0.0 9.739025 0.0 0.0 0.0 38.303587" Properties=species:S:1:pos:R:3:move_mask:L:1:forces:R:3 job_name=BondOrder-VacuumGB-T2-Al-Al-42-d-3.50 top_level=BondOrder-VacuumGB solute=Al energy=-477.8366504 stress_kbar_3x3="_JSON [[-18.01887591, -2.04620473, 0.64841755], [-2.04620468, -20.34609443, -1.38892684], [0.64841758, -1.38892683, -19.58025385]]" pbc="T T T"
Ti       2.57540870       9.31362439       8.45957701  F       0.65051978       0.12231777       0.84480391
Ti       0.04487273       4.44686803       8.45260576  F       0.64709906       0.15325480       0.83354962
Ti       1.31153249       2.01319281       8.92496559  F      -0.72964279      -0.20965450       0.56198790
Ti       3.85088729       6.87971543       8.93546078  F      -0.71577704      -0.20351093       0.55833740
Ti       2.60727455       4.28862835       9.64468999  F      -0.05968976      -0.30572641       0.22270934
Ti       0.05389511       9.16296167       9.65748339  F      -0.04000646      -0.30860016       0.20974253
Ti       1.01166175       6.39091377      10.48993525  F       0.07870096       0.23258460      -0.73720387
Ti       3.54511867       1.52027154      10.49709802  F       0.08786836       0.23615264      -0.74678561
Ti       0.27003531       3.62051176      11.11899506  F       0.12770001       0.21334958      -0.41668190
Ti       2.80847923       8.48955679      11.13159694  F       0.10966249       0.20432434      -0.43466269
Ti       1.10323407       0.94163711      11.84247321  F      -0.07152524       0.02643197      -0.19116739
Ti       3.64888877       5.80758513      11.83550195  F      -0.05816570       0.04163795      -0.19057247
Ti       2.71924773       3.22687985      12.56644931  F       0.00558253      -0.13074376       0.02113149
Ti       0.17079931       8.09384072      12.56805806  F       0.00590851      -0.13418043       0.01636315
Ti       3.59827591       0.56364607      13.21362671  F       0.01583797       0.06439402      -0.00561817
Ti       1.05635637       5.43587576      13.20696189  F       0.01387310       0.06271810      -0.01486076
Ti       2.74105818       7.64434576      13.90171235  F      -0.02187330      -0.03903363       0.04479485
Ti       0.19761201       2.77696611      13.89251949  F      -0.01501384      -0.04156263       0.04139921
Ti       3.60284053       4.99726903      14.66311105  F       0.00472290       0.01197539      -0.02600502
Ti       1.05206145       0.11771560      14.66399203  F       0.01082292       0.01724028      -0.02548775
Ti       0.21514790       7.18958199      15.33407498  F      -0.00725801       0.00721106      -0.00331868
Ti       2.75914365       2.32233868      15.32875079  F      -0.01364823       0.00534022       0.00018289
Ti       1.09366211       4.53443161      16.00228106  F      -0.00290377       0.00763338      -0.00627348
Ti       3.62634045       9.39454595      16.01607035  F       0.00136277       0.00963207      -0.01109953
Ti       0.16829055       1.93726737      16.71185501  F      -0.02217458      -0.00554998      -0.00935482
Ti       2.70280084       6.80573780      16.73709707  F      -0.02218986      -0.00219215      -0.01497930
Ti       0.99466527       8.99257743      17.43598432  F       0.01016394       0.00528931       0.00580251
Ti       3.57450120       4.12949269      17.42510610  F       0.00683348       0.01086568       0.00943511
Ti       2.75877726       1.38803506      18.04949287  F       0.00522940       0.00646322       0.00629776
Ti       0.20800836       6.28263529      18.06642306  F       0.00022559       0.01018648       0.00544194
Ti       3.67095874       8.41986432      18.94261761  F       0.01196598       0.00265820       0.00279633
Ti       1.20662251       3.51849547      18.87056856  F      -0.00675979       0.00306462       0.00257527
Ti       5.06543301       0.94952572      19.52693883  F      -0.01135954      -0.01148126      -0.00064798
Ti       2.49158147       5.79374597      19.60270333  F      -0.00616946       0.00334749      -0.00312937
Ti       3.78657548       3.33210027      20.11256237  F      -0.01291688      -0.01327808       0.00563764
Ti       1.18778390       8.21823729      20.15933105  F       0.01456337      -0.00945652      -0.00084708
Ti       2.51015038       1.02048426      20.83749606  F       0.00161345      -0.00174116      -0.00745889
Ti       5.02892621       5.88256588      20.80332926  F       0.00291627       0.01354588      -0.02616284
Ti       1.53096513       3.75847479      21.64014773  F       0.03582429      -0.01304023      -0.01387670
Ti       4.05489588       8.61725488      21.69009560  F      -0.00765470      -0.01277734      -0.01289374
Ti       4.94820822       1.67653420      22.26813503  F      -0.00935543       0.01325933      -0.00040775
Ti       2.25155461       6.50599009      22.29211308  F       0.01114518      -0.00894463       0.00303317
Al       1.50249858       9.16202672      22.97000996  F       0.01212657      -0.00090096       0.01738714
Ti       3.99380017       4.36369676      22.97594702  F       0.00162231       0.00567524       0.02600695
Ti       4.97282767       6.96290618      23.76998038  F      -0.03159004       0.02246907       0.01937545
Ti       2.42529522       2.02318505      23.63932684  F       0.01225594       0.02971203       0.05178071
Ti       1.50315503       4.70168962      24.34503213  F      -0.00907022      -0.00081518       0.01515017
Ti       4.09202860       9.60167553      24.34794320  F      -0.01971464      -0.01078763      -0.00611711
Ti       2.38007137       7.39014747      25.01963490  F       0.01510487       0.00175812       0.03176952
Ti       4.86590254       2.55440991      25.03679491  F       0.04243708       0.02340210       0.02012832
Ti       4.01842470       5.17828829      25.80543299  F       0.06744363      -0.05624471       0.18548956
Ti       1.45722383       0.28884974      25.76214994  F       0.07002112      -0.04159407       0.14285570
Ti       4.86120561       7.83112079      26.52040775  F      -0.12349798       0.04860603       0.18072519
Ti       2.33149910       2.96529938      26.47356246  F      -0.14221062       0.02948462       0.12280981
Ti       1.44885282       5.62670222      27.10166468  F       0.12584865       0.03290473       0.44958932
Ti       3.99165271       0.74985623      27.09974950  F       0.10949137       0.05267930       0.47089304
Ti       2.36578211       8.22229846      27.86011400  F      -0.03342128       0.29384591       0.28359734
Ti       4.92075942       3.33531415      27.86199088  F      -0.03782212       0.30764498       0.27038816
Ti       1.55183924       1.16896543      28.55141714  F      -0.27203657       0.29195093       0.18964547
Ti       4.08538776       6.03187487      28.57122010  F      -0.28375752       0.28028323       0.19687215
Ti       4.80817050       8.83861318      29.21345634  F      -0.57175403      -0.68909928      -0.41254554
Ti       2.27424541       3.94935968      29.18924847  F      -0.54938490      -0.68270114      -0.41508146
Ti       3.86801099       1.85390132      30.04732543  F       0.79037362       0.01689499      -1.18313948
Ti       1.32116044       6.72856577      30.03231042  F       0.80147682       0.01142711      -1.15410662
