52
Lattice="5.088765 0.0 0.0 0.0 5.495746 0.0 0.0 0.0 48.722931" Properties=species:S:1:pos:R:3:move_mask:L:1:forces:R:3 job_name=BondOrder-VacuumGB-C1-V-V-31-d-3.83 top_level=BondOrder-VacuumGB solute=V energy=-395.77230015 stress_kbar_3x3="_JSON [[-36.72131237, -0.01587967, -0.36339411], [-0.01587964, -25.54488151, -0.58328372], [-0.36339411, -0.58328373, -23.32827096]]" pbc="T T T"
Ti       2.62983813       0.79752617      40.08245514  F       0.04836460      -0.00111284      -1.16968353
Ti       0.03154525       1.60194401       8.73787300  F       0.10780660      -0.00990655       0.77685765
Ti       0.81754572       4.35103157       8.73417006  F      -0.10471131      -0.01460284       0.78435714
Ti       2.57101710       2.35897203       9.95229205  F      -0.39344951       0.09906427       0.01817379
Ti       3.36739355       5.10667466       9.95263312  F       0.38745132       0.09677273       0.01684243
Ti       0.81222287       0.38948352      11.20281480  F      -0.07281839      -0.07298075      -0.57181494
Ti       0.03932598       3.13832927      11.20218140  F       0.07758965      -0.07471472      -0.57474910
Ti       3.37272149       1.18373423      12.44958588  F      -0.04580517      -0.01248000      -0.05892935
Ti       2.56821319       3.93214031      12.45231437  F       0.05323391      -0.01765332      -0.05544332
Ti       0.01489990       4.70460588      13.69801354  F      -0.00173423       0.00790430       0.07372172
Ti       0.83550397       1.95604042      13.69543123  F       0.00890765       0.01538785       0.07244614
Ti       3.37643120       2.73732117      14.94994926  F       0.00134592       0.00358843      -0.01415822
Ti       2.56893579       5.48622187      14.94551547  F       0.00463068       0.00356562      -0.01688888
Ti       0.83883202       3.54109051      16.19667161  F      -0.01511742      -0.01842028      -0.01091962
Ti       0.02898561       0.79090929      16.19754863  F       0.01930494      -0.01085729      -0.00292722
Ti       2.56654916       1.57126126      17.44972795  F       0.00912536      -0.00132688       0.00196404
Ti       3.38519914       4.32438270      17.44193229  F      -0.00439443      -0.00126783       0.01443222
Ti       0.83302574       5.09720549      18.70049432  F      -0.00279111       0.00029862      -0.01425723
Ti       0.03176916       2.34713969      18.68431830  F      -0.00876178       0.01540179       0.00056270
Ti       3.38043606       0.39940334      19.94565754  F      -0.00188988       0.01367595      -0.00514071
Ti       2.59501062       3.14566059      19.93274596  F       0.00878517      -0.00032941      -0.01042935
Ti       0.05234813       3.90990453      21.19208756  F       0.00105124       0.00088019      -0.00871761
Ti       0.82774869       1.16660948      21.17561921  F      -0.01035478       0.00924159      -0.00522191
Ti       2.57477769       4.71615245      22.38916125  F       0.01081583       0.01036208      -0.01250668
Ti       3.35041743       1.97499525      22.41595887  F      -0.00510167      -0.01145598      -0.00732014
Ti       0.77152802       2.71558549      23.80729088  F      -0.00672578       0.00403781      -0.00775747
Ti       0.08412746       5.47066342      23.71812792  F      -0.00218815       0.00882610      -0.00032455
Ti       3.40225159       1.79322895      25.19516357  F       0.00066600       0.00292819      -0.00635282
Ti       2.52911112       4.58263879      25.15920605  F      -0.00523551      -0.01707572       0.02068487
Ti       5.02209200       4.01176268      26.32353793  F      -0.00590194       0.02698047       0.02019693
Ti       0.83867936       1.23822455      26.35808249  F       0.00497183       0.00496273       0.02196132
V        3.24816888       0.37793146      27.54706817  F      -0.00988351      -0.00972913      -0.00623554
Ti       2.61947232       3.13003069      27.55666659  F       0.02351777       0.01439696       0.00109504
Ti       0.83335651       5.03769755      28.77551943  F       0.00321100      -0.00544624      -0.01908940
Ti       5.01558347       2.27119947      28.81235397  F      -0.00665613      -0.01853981      -0.02275776
Ti       2.50566209       1.61175941      29.96401789  F      -0.00250138       0.00178567       0.01329408
Ti       3.41162510       4.38898519      29.98004773  F       0.00187473      -0.00655916       0.00515056
Ti       0.05144233       0.79706453      31.26759991  F       0.00720689      -0.02897269      -0.00155835
Ti       0.81541353       3.55038931      31.23149622  F      -0.00715049       0.00947584       0.00965021
Ti       3.37408019       2.73138027      32.47851091  F      -0.02372562      -0.00832689       0.00844680
Ti       2.55660062       5.47223520      32.50906019  F       0.00527611       0.00922305       0.00528148
Ti       0.85224601       1.97298930      33.74769454  F       0.00581808      -0.00250067      -0.00375248
Ti       0.00694108       4.71193721      33.73405212  F      -0.00547946      -0.00261699       0.00433249
Ti       2.58827819       3.94002121      34.98296701  F      -0.00564065       0.01079509      -0.04703691
Ti       3.38175405       1.19672067      34.97473284  F       0.00029422      -0.00708135      -0.04129389
Ti       0.81846170       0.38930766      36.22696089  F       0.00107660      -0.01075167       0.04496143
Ti       0.04743747       3.13734553      36.24196755  F      -0.01109637      -0.01692558       0.04862230
Ti       2.57346988       2.36121429      37.47631428  F       0.10374849      -0.09645512       0.74607404
Ti       3.37737771       5.11141749      37.48084552  F      -0.09998874      -0.09389195       0.74410673
Ti       0.82835934       4.35456533      38.69721349  F       0.28312369       0.11015795       0.21919161
Ti       0.04442492       1.60705505      38.69755455  F      -0.28200761       0.08729966       0.19865091
Ti       3.31706567       3.54830093      40.07490309  F      -0.03808725       0.00496871      -1.17579165
