64
Lattice="5.088765 0.0 0.0 0.0 9.739025 0.0 0.0 0.0 38.303587" Properties=species:S:1:pos:R:3:move_mask:L:1:forces:R:3 job_name=BondOrder-VacuumGB-T2-V-V-45-d-4.19 top_level=BondOrder-VacuumGB solute=V energy=-481.34703238 stress_kbar_3x3="_JSON [[-19.33376284, 0.24291465, 0.5599981], [0.24291465, -21.23436226, -0.0830404], [0.55999808, -0.08304044, -22.57134627]]" pbc="T T T"
Ti       2.54706428       9.25385599      29.93823681  F      -0.85736102       0.03164140      -0.95802454
Ti       0.01658429       4.38317481      29.93275940  F      -0.87822233       0.01737383      -0.96232681
Ti       1.27800771       1.88175493       8.25212478  F      -0.85638146       0.03765151       1.05835350
Ti       3.82547400       6.75111161       8.26342434  F      -0.85406816       0.03762697       1.04586921
Ti       2.71650998       4.08010609       9.02011170  F       0.76636214      -0.59257540       0.61830311
Ti       0.17102830       8.95187804       9.03692698  F       0.77381671      -0.58840428       0.58404808
Ti       1.04266250       6.22147421       9.76955969  F       0.24920798       0.13281219      -0.12449500
Ti       3.57965612       1.35263370       9.76327790  F       0.25018013       0.14014643      -0.11635735
Ti       0.23143703       3.50092627      10.40271798  F      -0.12372155       0.29777337      -0.37524883
Ti       2.77280698       8.37073094      10.41118307  F      -0.12231949       0.30106276      -0.37617106
Ti       1.10654686       0.87302568      11.15381302  F      -0.10711861       0.12996787      -0.45230721
Ti       3.65283765       5.73903213      11.15162971  F      -0.11236484       0.14087465      -0.46050553
Ti       2.76205951       3.10814166      11.83990687  F       0.11166453      -0.00311623      -0.16818539
Ti       0.21633867       7.97668999      11.84239660  F       0.11535361      -0.00235928      -0.17958158
Ti       3.61023451       0.43703875      12.50704044  F      -0.05058760      -0.00959308      -0.13781730
Ti       1.06466632       5.30492483      12.50780651  F      -0.05066379      -0.01504503      -0.14802488
Ti       2.75563749       7.52292934      13.23262529  F      -0.02137621      -0.00895206      -0.02466519
Ti       0.21076138       2.65172225      13.23212734  F      -0.02068547      -0.00805071      -0.01865439
Ti       3.60910480       4.86899633      13.95851657  F       0.03924571      -0.02133410      -0.00275146
Ti       1.06658479       0.00176276      13.95886130  F       0.03654598      -0.01207478      -0.01134355
Ti       0.21441511       7.06708454      14.61948326  F       0.00595196       0.02267722      -0.03637744
Ti       2.76087383       2.19545867      14.62848461  F       0.00109432       0.01991784      -0.04898457
Ti       1.10431798       4.42948387      15.30814346  F      -0.01253041      -0.00112834      -0.01422588
Ti       3.65744807       9.30666099      15.31634042  F      -0.02154494      -0.00130755      -0.01756585
Ti       0.22608874       1.80921867      16.06693751  F      -0.00133481       0.01479993      -0.00994779
Ti       2.76851715       6.67742614      16.04962429  F      -0.00597875       0.02015208      -0.00417425
Ti       1.04376168       8.82842616      16.68852812  F      -0.01733039      -0.00116001       0.01205470
Ti       3.56684770       3.95516414      16.69860197  F      -0.00375727       0.00900186      -0.00152184
Ti       2.71428110       1.23431429      17.45076950  F       0.00767944      -0.00247752      -0.01108415
Ti       0.16331882       6.09258795      17.41338520  F       0.02412258       0.01438903       0.01468360
Ti       3.82673092       8.29461072      18.20695892  F      -0.00185376      -0.02526946      -0.00174374
Ti       1.26262946       3.42397824      18.22063330  F      -0.01566788      -0.02680448       0.00454354
Ti       0.01021824       0.92209089      18.84348793  F       0.00082620      -0.02080109      -0.00512841
Ti       2.53540083       5.78215653      18.81839908  F      -0.01523099       0.00348458       0.00173009
Ti       3.80005053       3.41243749      19.42616209  F      -0.00109658       0.00022367      -0.01633310
Ti       1.27979895       8.29020868      19.42202531  F      -0.01456338      -0.01900282      -0.00960798
Ti       2.39310369       1.21081402      20.25972475  F       0.00744755      -0.02322079      -0.01795785
Ti       4.91927859       6.08566351      20.19556625  F      -0.00947927      -0.02282190       0.00657826
Ti       1.52616642       3.94024395      20.96922210  F       0.01278706       0.02282765       0.00612884
Ti       4.08758102       8.83465914      20.92253002  F       0.00152541       0.01540268       0.00430779
Ti       4.85227991       1.86476033      21.60172923  F      -0.00554848      -0.00973820       0.00093294
Ti       2.30301220       6.70805538      21.57326966  F       0.00906882       0.01603254       0.00512243
Ti       1.41670709       9.36787076      22.36466007  F      -0.00577751       0.00151080      -0.00327440
Ti       3.91150975       4.44447223      22.34298024  F       0.00159417       0.03647022       0.00009700
Ti       4.88888849       7.08185864      22.98674863  F      -0.00575619      -0.00566968       0.00314143
V        2.37480958       2.20623977      22.99869935  F      -0.00644969       0.01319841       0.00963024
Ti       1.43410557       4.83895144      23.61787683  F      -0.00068943       0.01509411       0.01915133
Ti       3.93415475       0.01299186      23.63001907  F       0.01981036       0.01122665       0.02183895
Ti       2.32831354       7.49577694      24.37069553  F       0.00180786      -0.02919983      -0.03006445
Ti       4.88860861       2.61176303      24.33365596  F       0.00422547      -0.01276454      -0.01227321
Ti       4.04497279       5.29987028      25.09765931  F      -0.01275623       0.06018082       0.03956930
Ti       1.49660579       0.44366128      25.06027501  F      -0.01324788       0.03183992       0.03526054
Ti       4.87249758       7.98885403      25.75460413  F      -0.00248750      -0.06700176       0.05480904
Ti       2.34023651       3.10851174      25.69213098  F      -0.00816327      -0.08532595       0.03573308
Ti       1.43105740       5.74217784      26.45824102  F       0.03592340       0.04765527       0.21861600
Ti       3.97711411       0.89078966      26.46115210  F       0.03546483       0.02143563       0.21536698
Ti       2.32649176       8.38051866      27.17693123  F      -0.05107579       0.22689096       0.47267430
Ti       4.87457379       3.50471475      27.14820354  F      -0.04323782       0.21502823       0.45706991
Ti       1.49198010       1.35628584      27.80162443  F      -0.10528032       0.26211762       0.66270371
Ti       4.04158876       6.21566001      27.82315104  F      -0.10326972       0.27220226       0.65194998
Ti       4.93140003       8.93698707      28.54785491  F       0.14612661      -0.08436056      -0.09359457
Ti       2.38993339       4.05125910      28.52674963  F       0.18723920      -0.07578728      -0.10082983
Ti       3.82556560       1.87385658      29.31905933  F       0.84438424      -0.42361880      -0.65010316
Ti       1.28235860       6.74114859      29.32656683  F       0.84952249      -0.44172548      -0.65901533
