64
Lattice="5.872 0.0 0.0 0.0 6.890708 0.0 0.0 0.0 43.394398" Properties=species:S:1:pos:R:3:move_mask:L:1:forces:R:3 job_name=BondOrder-VacuumGB-T1g-Al-Al-46-d-6.48 top_level=BondOrder-VacuumGB solute=Al energy=-482.122228 stress_kbar_3x3="_JSON [[-18.14337718, -0.00010039, -0.00024121], [-0.00010041, -26.50420188, -1.00141752], [-0.00024119, -1.00141749, -18.33422422]]" pbc="T T T"
Ti       4.40388843       5.22093097      34.64769296  F       0.00000732      -0.28060323      -0.44535168
Ti       1.46812918       5.21355791      34.64960231  F      -0.00011895      -0.26395612      -0.45966395
Ti       5.86995067       3.19148654       8.54205706  F       0.00797353       0.16199759       0.94424317
Ti       2.93806694       3.19141763       8.54214385  F      -0.00812772       0.16227399       0.94420626
Ti       0.00235467       6.63830826       9.15717265  F      -0.01382207      -0.20831070       0.13827346
Ti       2.93361010       6.63836338       9.15721605  F       0.01387539      -0.20837526       0.13829649
Ti       4.40408221       1.76991969      10.45227846  F      -0.00029431       0.03172956      -0.52654282
Ti       1.46791192       1.76813500      10.45162755  F       0.00021693       0.04462793      -0.52321701
Ti       1.46794128       4.59712895      10.66417331  F      -0.00022791       0.11206629      -0.36761261
Ti       4.40397064       4.59740458      10.66395634  F       0.00028886       0.11799355      -0.36315716
Ti       5.87083147       6.72395976      11.97694064  F       0.00303743      -0.09429952       0.01905073
Ti       2.93709806       6.72394598      11.97707082  F      -0.00297725      -0.09408911       0.01819322
Ti       2.93629360       2.87911007      12.58702248  F      -0.00075431      -0.07153260       0.11043722
Ti       5.87165355       2.87908251      12.58706587  F       0.00070051      -0.07151924       0.11076275
Ti       4.40394715       5.00708473      13.74660758  F       0.00029195       0.06181849      -0.08453766
Ti       1.46795890       5.00545164      13.74717171  F      -0.00026294       0.06695505      -0.08605441
Ti       4.40395302       0.93362892      14.22316486  F       0.00031827       0.01042931       0.03256551
Ti       1.46797064       0.93290539      14.22147248  F      -0.00031173       0.01531781       0.03231870
Ti       2.93620552       3.09194337      15.40592257  F       0.00136985      -0.02855718      -0.03411579
Ti       5.87169466       3.09193648      15.40596597  F      -0.00120302      -0.02863816      -0.03416353
Ti       2.93664592       6.02514550      16.00723875  F      -0.00161258       0.00512736      -0.04534146
Ti       5.87127187       6.02515928      16.00732553  F       0.00171730       0.00501132      -0.04591101
Ti       4.40400587       1.29390269      17.18908517  F      -0.00007139      -0.00157990       0.00519444
Ti       1.46800587       1.29280707      17.18791353  F       0.00006271      -0.00092062       0.00683554
Ti       4.40399413       4.11253991      17.66815933  F      -0.00006962       0.01084238       0.02827669
Ti       1.46800000       4.11071387      17.66473117  F       0.00003941       0.01739405       0.03306803
Ti       2.93338696       6.24061794      18.82657278  F      -0.00042749       0.00631221       0.00247984
Ti       0.00269525       6.24059037      18.82657278  F       0.00042901       0.00652375       0.00285885
Ti       2.93777922       2.39702925      19.43813003  F       0.00085444       0.00039524      -0.00082261
Ti       5.87032648       2.39704992      19.43804325  F      -0.00100667       0.00018928      -0.00003867
Ti       1.46808808       4.52248880      20.74482215  F       0.00001326      -0.00143204      -0.00182122
Ti       4.40410570       4.52495568      20.75554056  F      -0.00012665      -0.00442407      -0.00322618
Ti       4.40402349       0.46084366      20.96999568  F       0.00014994       0.01668498       0.00152566
Ti       1.46807634       0.46727269      20.97038623  F      -0.00014130       0.01273626      -0.00165523
Ti       5.86017379       2.48936473      22.25381894  F      -0.00358787       0.00717131      -0.01024564
Ti       2.94793778       2.48937852      22.25377555  F       0.00357219       0.00732301      -0.00950575
Ti       0.00842632       5.94105819      22.87817754  F       0.00944710      -0.01815020       0.01093814
Ti       2.92773810       5.94103751      22.87822094  F      -0.00950676      -0.01805637       0.01083373
Ti       4.40409395       3.90931915      24.19463339  F      -0.00008430       0.00170788       0.00247217
Ti       1.46804698       3.91078687      24.17241546  F       0.00007184       0.01159877       0.03017606
Ti       4.40405285       1.08499710      24.39420423  F       0.00004073      -0.00271947       0.00612402
Ti       1.46804110       1.08591356      24.32702970  F       0.00009585      -0.01467247       0.00818317
Ti       0.01849680       5.82892569      25.71417503  F      -0.00132595      -0.00569915      -0.01650655
Ti       2.91759715       5.82896704      25.71417503  F       0.00110019      -0.00608677      -0.01634774
Ti       2.95914155       2.78118622      26.28329256  F      -0.01752811       0.00547820       0.00276707
Ti       5.84904635       2.78120000      26.28333595  F       0.01724727       0.00496479       0.00293565
Al       4.40394128       0.66579399      27.41176388  F       0.00094722      -0.00581405       0.02232892
Ti       1.46805285       0.61643585      27.43259319  F      -0.00043622      -0.00714665       0.02211573
Ti       1.46801762       4.66086111      27.92915529  F       0.00006832       0.02458061      -0.02617868
Ti       4.40401762       4.77046471      27.92507621  F       0.00002250      -0.01824134      -0.03202322
Ti       2.97225960       2.53870220      29.09412129  F      -0.01292772      -0.01800964      -0.03543315
Ti       5.83571104       2.53870909      29.09416469  F       0.01288521      -0.01809395      -0.03551741
Ti       2.95373931       6.53937147      29.66762166  F      -0.02176394       0.01405251       0.02938611
Ti       5.85425482       6.53938525      29.66775184  F       0.02169169       0.01429311       0.02862655
Ti       4.40395890       4.39711926      30.84508525  F      -0.00006552       0.02715177       0.02058304
Ti       1.46798826       4.38263499      30.87858573  F       0.00009178      -0.00144435       0.01615237
Ti       4.40400000       1.57886792      31.39510925  F      -0.00022946      -0.02359358      -0.00073049
Ti       1.46796477       1.55229046      31.34490193  F       0.00025037      -0.00279320      -0.02248851
Ti       2.93250616       6.31949587      32.49923631  F      -0.01826367      -0.08748534       0.75670709
Ti       0.00347622       6.31949587      32.49936649  F       0.01836737      -0.08764769       0.75680407
Ti       5.86574045       3.29065071      33.11504621  F       0.00405227       0.29693041       0.23461464
Ti       2.94223019       3.29067139      33.11513300  F      -0.00394689       0.29663995       0.23400840
Ti       1.46806459       1.15504804      34.42451557  F       0.00011278       0.03745012      -0.78477638
Ti       4.40400587       1.16087758      34.43362839  F      -0.00018851       0.07812314      -0.75135692
