64
Lattice="5.871999 0.0 0.0 0.0 6.890708 0.0 0.0 0.0 43.401158" Properties=species:S:1:pos:R:3:move_mask:L:1:forces:R:3 job_name=BondOrder-VacuumGB-T1m-V-V-49-d-6.60 top_level=BondOrder-VacuumGB solute=V energy=-485.81566145 stress_kbar_3x3="_JSON [[-19.4110412, 0.00099702, 0.00064193], [0.00099698, -28.09454929, -0.51336278], [0.00064193, -0.51336276, -18.02254088]]" pbc="T T T"
Ti       2.93596427       0.10112803      34.53434482  F       0.00025906      -0.27906049      -0.21048079
Ti       2.93606409       2.93952091      34.53030851  F      -0.00003051       0.12396708      -0.99572563
Ti       0.00004698       0.10347087      34.53777351  F      -0.00002660      -0.28368524      -0.22447616
Ti       0.00004698       2.93991368      34.52115087  F       0.00008478       0.12273193      -0.99103815
Ti       4.40128639       5.02811517       8.54534080  F       0.00756726      -0.01654976       0.93432605
Ti       1.47081831       5.02810139       8.54529740  F      -0.00772753      -0.01655803       0.93454135
Ti       4.40211434       1.32089360       9.16280908  F       0.00694055      -0.25866625       0.16203286
Ti       1.46986705       1.32087293       9.16285248  F      -0.00680119      -0.25861025       0.16135939
Ti       2.93597601       3.41424934      10.34735688  F       0.00025648       0.11735051      -0.25839956
Ti       0.00006459       3.41295389      10.34618505  F      -0.00039375       0.12653083      -0.25902593
Ti       2.93604060       6.22744979      10.75324451  F      -0.00038525       0.15063022      -0.54848357
Ti       5.87195202       6.22737399      10.75124806  F       0.00034731       0.14748552      -0.55104614
Ti       1.46771202       1.49046014      11.97498711  F       0.00258096      -0.01737521      -0.01435661
Ti       4.40424000       1.49038434      11.97503051  F      -0.00237086      -0.01678910      -0.01464474
Ti       1.46761807       4.44285289      12.57900102  F       0.00057355      -0.01463767       0.06803320
Ti       4.40444552       4.44299759      12.57913123  F      -0.00072732      -0.01595612       0.06685199
Ti       2.93602299       6.59685376      13.74154444  F      -0.00035462       0.04323746      -0.09711363
Ti       5.87198726       6.59697090      13.74063302  F       0.00036678       0.04083031      -0.09838721
Ti       2.93604060       2.51973209      14.24534508  F      -0.00040653       0.01780003       0.03344004
Ti       0.00000587       2.51937377      14.24469407  F       0.00025140       0.02030873       0.03703006
Ti       4.40337682       4.67658571      15.40810551  F       0.00197572      -0.01561749      -0.02077274
Ti       1.46859282       4.67664772      15.40819231  F      -0.00190994      -0.01620436      -0.02178009
Ti       4.40448663       0.73375015      16.01220623  F      -0.00126087       0.00202908      -0.02373029
Ti       1.46757109       0.73369503      16.01233643  F       0.00123262       0.00236950      -0.02565386
Ti       5.87198726       2.89281569      17.23117115  F       0.00014763      -0.02207949      -0.00467806
Ti       2.93601124       2.89270544      17.23225618  F      -0.00007358      -0.02683075      -0.01284845
Ti       0.00001174       5.70693949      17.64508799  F      -0.00030168       0.04695994       0.02538282
Ti       2.93594665       5.70816604      17.64365576  F       0.00047392       0.05055078       0.02739259
Ti       1.46320233       0.92015069      18.82972260  F       0.00326057       0.00594248       0.00542434
Ti       4.40878493       0.92018515      18.82998301  F      -0.00332382       0.00528516       0.00295301
Ti       1.47127633       4.08934579      19.44259035  F      -0.00461913      -0.01893929       0.02557562
Ti       4.40069919       4.08942159      19.44267716  F       0.00451002      -0.01924921       0.02496415
Ti       2.93597601       2.13256387      20.87734584  F      -0.00010000       0.05032906      -0.01006458
Ti       5.87196964       2.13601612      20.88003671  F       0.00035057       0.05377400      -0.00158929
Ti       2.93601712       6.19144584      20.84614040  F      -0.00028134      -0.00553624      -0.00069289
Ti       5.87194028       6.19504968      20.84752924  F       0.00035965      -0.01245427       0.00014476
Ti       4.39603682       4.12040221      22.27994106  F      -0.00015100       0.00491555      -0.02179041
Ti       1.47596805       4.12043666      22.27998446  F       0.00001113       0.00447318      -0.02260955
Ti       4.41340619       0.89113392      22.89623750  F      -0.00175974      -0.00893397      -0.00658091
Ti       1.45863978       0.89107880      22.89632430  F       0.00149338      -0.00831425      -0.00688612
Ti       2.93593491       5.72366324      24.09549830  F       0.00059648       0.00538759       0.00984554
Ti       0.00008221       5.71855033      24.11997655  F      -0.00038992      -0.01941179       0.01844350
Ti       2.93597601       2.89514475      24.47109192  F       0.00007467      -0.00925651      -0.00730951
Ti       5.87198726       2.88532549      24.43710881  F      -0.00002438      -0.01001411       0.00205837
Ti       4.39473911       0.78411434      25.72260771  F      -0.00626038       0.00906497       0.00066150
Ti       1.47731861       0.78418324      25.72273792  F       0.00616561       0.00872925      -0.00024779
Ti       4.36269561       4.62083988      26.29528599  F      -0.00016508      -0.00510943       0.00065608
Ti       1.50932688       4.62072963      26.29537280  F       0.00022181      -0.00456974       0.00023199
Ti       0.00007634       2.49560083      27.45370630  F      -0.00040712      -0.01458565       0.03278304
V        2.93610520       2.50522025      27.44615450  F       0.00029282      -0.00399900       0.02042951
Ti       0.00010570       6.54329917      27.92378424  F      -0.00112912       0.01348367      -0.01568397
Ti       2.93582334       6.62369996      27.95598790  F       0.00143862      -0.01298897      -0.04129463
Ti       1.49669034       4.40930892      29.07929667  F      -0.00526914      -0.06138169      -0.04029539
Ti       4.37538500       4.40924691      29.07934008  F       0.00518219      -0.06041536      -0.04103387
Ti       1.49226872       1.48861343      29.66816359  F      -0.02892348       0.02014248      -0.02253263
Ti       4.37982423       1.48867545      29.66825039  F       0.02880178       0.01931180      -0.02305854
Ti       2.93598188       6.21940145      30.89546153  F       0.00045214       0.01447721       0.06115540
Ti       0.00012918       6.22168916      30.90188490  F      -0.00034257       0.01556416       0.04550683
Ti       2.93598776       3.40259716      31.32995052  F       0.00032961      -0.00349883      -0.01734807
Ti       0.00007634       3.40486420      31.29696564  F      -0.00021312       0.02338234      -0.04164377
Ti       4.40728757       1.30939301      32.49409979  F      -0.00003905      -0.06843736       0.72094081
Ti       1.46481125       1.30927586      32.49405638  F      -0.00011536      -0.06788602       0.72062153
Ti       4.40584306       5.02996188      33.11525716  F       0.02496379       0.20330863       0.27487604
Ti       1.46627338       5.03000323      33.11512696  F      -0.02527887       0.20324842       0.27564116
