100
Lattice="4.4265 -2.555641 0.0 3.767997 6.526363 -0.031456 0.0 0.0 61.781652" Properties=species:S:1:pos:R:3:move_mask:L:1:forces:R:3 job_name=BondOrder-VacuumGB-CSL13-Al-Al-51-d-0.00 top_level=BondOrder-VacuumGB solute=Al energy=-756.59792266 stress_kbar_3x3="_JSON [[-34.76826032, -0.794589, 0.47903336], [-0.794589, -37.15279557, 0.23782904], [0.47903335, 0.23782901, -23.03997691]]" pbc="T T T"
Ti       2.46357266      -0.91923140       8.01830468  F       0.10939972      -0.02263858       1.75619517
Ti       5.75749496       1.53011294       8.00257602  F      -0.07546569       0.08557492       1.75573198
Ti       4.97515893      -0.82503715       9.38656097  F       0.42228179       0.00545916      -0.13092429
Ti       4.58325431       3.75249442       9.37089346  F      -0.20867776       0.36567236      -0.13096737
Ti       7.09231803       3.84269772      10.63457310  F      -0.14300117      -0.04605692      -0.98039237
Ti       3.79832904       1.39433168      10.65023659  F       0.02966956      -0.14485868      -0.97985603
Ti       1.65309955      -0.46185113      10.87518818  F       0.30913845      -0.25426612      -0.11267979
Ti       2.13159562       3.61326749      10.85982917  F      -0.37657309       0.14151673      -0.11576795
Ti       4.71698500       3.64314915      12.16786501  F       0.04607442      -0.12601851      -0.33579744
Ti       4.81081607      -0.76249841      12.18235943  F      -0.13063169      -0.02469571      -0.33053158
Ti       3.43837769       5.86282910      13.25635381  F      -0.08398578       0.03221337       0.03733563
Ti       2.94545357       1.79694552      13.27164777  F       0.07169909      -0.05714664       0.03553823
Ti       2.39972774      -0.96079129      13.75519990  F       0.04090505      -0.04467002       0.01339254
Ti       5.74923544       1.45585168      13.73848493  F      -0.06155037       0.01116287       0.01326627
Ti       4.27518547       3.75975892      14.96015483  F      -0.00959051       0.01499582      -0.03103814
Ti       5.13214944      -1.08560475      14.97415181  F       0.01575921      -0.00097060      -0.02744227
Ti       6.92216304       3.59021001      15.85126265  F       0.00076567      -0.01175975      -0.01487254
Ti       3.65866141       1.12187519      15.86693469  F      -0.00519011      -0.01197813      -0.01943563
Ti       6.36687534       0.88976957      16.61369534  F      -0.00509801      -0.01009752       0.00476192
Ti       1.59726542      -0.70947441      16.63122250  F      -0.00243823      -0.01156954       0.00185383
Ti       4.79414427       3.16684317      17.68492097  F      -0.01431775       0.00070961       0.00335023
Ti       4.36104338      -0.93222189      17.69712093  F       0.00173384      -0.01430682       0.01026707
Ti       3.16297792       5.39466517      18.47620501  F      -0.00709902       0.00343083       0.00207296
Ti       2.67937892       1.32663480      18.49031342  F       0.00031799      -0.00783255       0.00643978
Ti       5.88659617       5.18057188      19.45930678  F       0.00396884      -0.00542536      -0.01051492
Ti       5.55876250       1.01820723      19.47318398  F      -0.00975943      -0.00133381      -0.00691806
Ti       0.57693636       0.88938041      20.35485938  F      -0.00095989       0.00288201      -0.00257762
Ti       3.83892168       3.35856457      20.34394462  F       0.00405450       0.00271830      -0.00552028
Ti       3.26996356       0.64690756      21.18287029  F       0.00253661       0.00676354       0.00383951
Ti       6.70423357       3.01380371      21.16819705  F      -0.00467934       0.00864260      -0.00030306
Ti       5.07271037       5.35470301      22.31598568  F       0.00156238       0.00521434      -0.00120254
Ti       6.11252937       0.40247136      22.33455919  F       0.00026928       0.00476952      -0.00738346
Ti       4.52019211       2.61676863      22.94040435  F       0.00387065       0.00553691       0.00039742
Ti       4.01746735      -1.44122889      22.94969743  F       0.00138244       0.00064044       0.00341788
Ti       7.11335834       2.53752098      23.92644180  F       0.00229253       0.00669494      -0.00547566
Ti       2.65197248       0.76561446      23.94209638  F       0.00288119       0.00491983      -0.00557777
Ti       5.76827284       4.80980960      25.21029453  F       0.00124427       0.00454981      -0.01050675
Ti       5.30091082       0.71642826      25.22575810  F      -0.00042514       0.01161501      -0.00180966
Ti       3.62224045       2.96370586      25.53875741  F       0.00381876       0.00389587      -0.01156261
Ti       0.33245883       0.48965943      25.54097476  F       0.00190427       0.00293694      -0.00527919
Ti       2.85212011       0.57420543      26.74039981  F       0.00526077       0.01440169       0.00410923
Ti       6.82338086       2.61464950      26.73554743  F      -0.00156945      -0.00288008       0.00128099
Ti       4.92134451       5.26166195      28.06918932  F       0.01020086       0.00013798       0.00582623
Ti       1.65810245       2.77834067      28.08392648  F      -0.00778003       0.00672551       0.00760616
Ti       4.40007049       2.46840142      28.17298523  F      -0.00739474       0.01080611      -0.00534841
Ti       3.91671383      -1.62233268      28.16728151  F      -0.00221242       0.00027621       0.00447262
Ti       6.88016039       2.60075077      29.51219374  F      -0.00012481       0.00012318       0.00729559
Ti       2.81009408       0.57391264      29.52319597  F       0.00428252      -0.00571383      -0.01073974
Ti       3.66797523       2.91893133      30.84803008  F      -0.01915993       0.00072003      -0.00187864
Ti       4.69073358      -2.06292179      30.85154798  F       0.01513719       0.00268405      -0.00248023
Ti       5.70433558       4.79251147      30.87623868  F       0.00441070      -0.01933634       0.00021562
Al       5.32802561       0.64417691      30.95250401  F      -0.00520289       0.01206945       0.00917347
Ti       2.76606890       0.59107257      32.24829093  F       0.00260310      -0.00240672       0.01139241
Ti       6.94046074       2.60170081      32.23354622  F       0.00112894      -0.00107777      -0.00745382
Ti       3.96543980      -1.59669611      33.55747450  F       0.00355503       0.00318209      -0.00673198
Ti       4.44167641       2.44249193      33.51240955  F      -0.00685652       0.00751146      -0.00129084
Ti       1.71260073       2.78186608      33.75708554  F       0.00025241       0.00661890       0.00248062
Ti       4.95839778       5.24753525      33.70031351  F       0.01675702      -0.00067481       0.00296017
Ti       2.92469352       0.55703571      35.04351732  F       0.01340378       0.01310669       0.00022270
Ti       6.82532347       2.65582747      35.00913157  F      -0.00160089       0.00003964       0.00298780
Ti       0.36654828       0.52184941      36.18891675  F       0.00295451       0.00485357       0.00313278
Ti       3.66764624       3.00062249      36.14829229  F       0.00723833       0.00941446       0.00811577
Ti       5.35745657       0.73143271      36.57549313  F       0.01023815       0.00580422       0.00181706
Ti       5.78457903       4.84451343      36.55930095  F       0.00747830       0.00381455       0.01407173
Ti       7.18992614       2.55768188      37.81355063  F       0.01402644       0.01092015       0.00808538
Ti       2.64270003       0.83038392      37.83014984  F       0.00049608       0.00812810       0.00925257
Ti       4.56614403       2.68312147      38.75227926  F       0.00642222       0.00746311      -0.00331882
Ti       4.07118014      -1.36861005      38.77543436  F       0.00419581       0.00200770      -0.00886585
Ti       6.14112800       0.47026314      39.45024331  F       0.00320483       0.00338102       0.00800686
Ti       5.12858093       5.40118887      39.43484077  F       0.00046063       0.00426670       0.00157435
Ti       3.34157655       0.70159503      40.56707249  F       0.00293520       0.00681665      -0.00593840
Ti       6.71902043       3.10297922      40.55226961  F      -0.00152583       0.00974315      -0.00189372
Ti       3.89875430       3.43990229      41.35898712  F       0.01060653       0.00311874       0.00220550
Ti       0.62040374       0.97484980      41.38048576  F      -0.00262194       0.00152870       0.00083639
Ti       5.92843208       5.26403328      42.29508445  F       0.00214193      -0.00730648       0.00724951
Ti       5.61004694       1.09331581      42.30952815  F      -0.00600130      -0.00450313       0.00291309
Ti       3.21862358       5.47256391      43.22139770  F      -0.00355055       0.00034557       0.00860703
Ti       2.72144939       1.41692223      43.23518075  F      -0.00189370      -0.00662582       0.00985133
Ti       4.80767034       3.26007069      44.03473922  F       0.00031960       0.00364891       0.01218998
Ti       4.43731374      -0.87666431      44.05429642  F       0.00234774       0.00024880       0.00793273
Ti       6.40687269       0.94682082      45.17475444  F      -0.00573273      -0.00598456      -0.00846578
Ti       1.62480660      -0.64628451      45.19111155  F       0.00251319      -0.00903567      -0.00944081
Ti       6.96954580       3.66590048      45.82073707  F      -0.00983951      -0.01734996      -0.01125603
Ti       3.69872263       1.19951288      45.83487280  F      -0.00244927      -0.02192270      -0.00674192
Ti       4.35868246       3.77303025      46.78162275  F       0.01957124       0.00074019      -0.01219180
Ti       5.10131916      -1.00539545      46.79963217  F      -0.00967614       0.01673777      -0.01521807
Ti       5.74812002       1.48509854      48.06346422  F       0.04404660      -0.03390732      -0.00519241
Ti       2.42519470      -0.94772715      48.07956439  F      -0.04910570       0.02361762      -0.00499589
Ti       3.45176515       5.89514561      48.41373772  F      -0.01192988      -0.07572832       0.01989061
Ti       2.96774798       1.82404998      48.42915549  F      -0.06116982      -0.04497730       0.02267699
Ti       4.67959123       3.67630317      49.58816666  F       0.01337975       0.02865410       0.38646017
Ti       4.85913923      -0.77851112      49.60519296  F       0.01912452       0.02607804       0.38400575
Ti       2.13314431       3.61425295      50.93010445  F       0.17217281      -0.01055179       0.47838218
Ti       1.65340476      -0.46026957      50.94589637  F      -0.09822707       0.14568450       0.47692876
Ti       7.09646577       3.84468874      51.05427635  F       0.48043329      -0.14355198       0.16361526
Ti       3.79788609       1.39868597      51.06975552  F      -0.36552240       0.34558029       0.16496265
Ti       4.60359638       3.74019300      52.37475573  F       0.15184475      -0.21584798       0.15654385
Ti       4.95459744      -0.81345313      52.39060761  F      -0.26167003       0.02858872       0.15514845
Ti       3.47041534       5.94706581      53.74032514  F       0.04828535      -0.08681711      -1.40487642
Ti       3.00592475       1.86427011      53.75586802  F      -0.09870016      -0.00027909      -1.40368415
