64
Lattice="5.088765 0.0 0.0 0.0 9.739025 0.0 0.0 0.0 38.303587" Properties=species:S:1:pos:R:3:move_mask:L:1:forces:R:3 job_name=BondOrder-VacuumGB-T2-Al-Al-41-d-2.77 top_level=BondOrder-VacuumGB solute=Al energy=-477.62587624 stress_kbar_3x3="_JSON [[-18.65470007, 0.13104845, 0.63463339], [0.13104846, -19.70414021, -0.63294846], [0.63463339, -0.63294848, -21.89329084]]" pbc="T T T"
Ti       2.54428581       9.25606675      29.94248851  F      -0.84569247       0.03115323      -0.95872965
Ti       0.00990783       4.38446036      29.94838726  F      -0.85955931       0.02010407      -0.93961188
Ti       1.27162131       1.87944678       8.26399890  F      -0.85549468       0.04325935       1.07223414
Ti       3.82233932       6.74972867       8.27043390  F      -0.85747856       0.04091196       1.06069536
Ti       2.71563471       4.07400946       9.03696528  F       0.76861500      -0.59206692       0.57784211
Ti       0.17514003       8.94332718       9.04619645  F       0.76650078      -0.58486047       0.57909912
Ti       1.04409245       6.22067561       9.77411781  F       0.25726311       0.13126486      -0.14853600
Ti       3.58052630       1.34718959       9.76802754  F       0.25921019       0.14151585      -0.16196359
Ti       0.22346294       3.49918299      10.41478361  F      -0.13415328       0.31015030      -0.39520680
Ti       2.76972828       8.37089651      10.41807772  F      -0.13402174       0.29648928      -0.39185382
Ti       1.10581408       0.87543122      11.15982668  F      -0.10701835       0.12253724      -0.47388792
Ti       3.65392664       5.74484633      11.15297034  F      -0.11644569       0.12660131      -0.48608477
Ti       2.75639063       3.10794688      11.83381660  F       0.12357343      -0.00010140      -0.19011066
Ti       0.21690861       7.97497592      11.84775910  F       0.11950690       0.00111322      -0.16664886
Ti       3.61640209       0.43784709      12.50278874  F      -0.06238326      -0.01469632      -0.16002401
Ti       1.07443166       5.31052477      12.51351375  F      -0.05843616      -0.01345247      -0.14224381
Ti       2.75932684       7.52427332      13.23779627  F      -0.01922714      -0.00819777      -0.01522333
Ti       0.20791167       2.66193849      13.23852404  F      -0.00985756      -0.00354421      -0.01415197
Ti       3.60900303       4.87042797      13.93798584  F       0.03489089      -0.01361513      -0.01069852
Ti       1.06591307       9.73783684      13.95120058  F       0.03796006      -0.01404393      -0.00316986
Ti       0.21445582       7.06426022      14.64407417  F       0.00703623       0.02348028      -0.04055260
Ti       2.75180056       2.20319145      14.60960094  F       0.00848458       0.02407330      -0.03748716
Ti       1.11147279       4.44149209      15.32909552  F      -0.02037385      -0.00108169      -0.01095482
Ti       3.64827303       9.30572604      15.30071256  F      -0.01726101       0.00244844      -0.00479187
Ti       0.21475606       1.80558602      16.04816876  F       0.00050958       0.01730484      -0.00211435
Ti       2.78958973       6.66189240      16.04705795  F       0.00452564       0.01976316       0.00457943
Ti       1.05472797       8.82296257      16.69408214  F      -0.00835864       0.00255013       0.01843232
Ti       3.61241250       3.97734964      16.66807401  F      -0.01870971       0.00134298       0.01248283
Ti       2.69733042       1.25054924      17.39067118  F       0.02205251       0.00705007       0.01530403
Ti       0.19777485       6.13559549      17.52316328  F       0.01730792       0.00866387       0.01546289
Ti       3.78403110       8.35918046      18.13058157  F      -0.00103740      -0.00921519       0.00598321
Ti       1.29522300       3.45264019      18.19113954  F      -0.00163113      -0.00499058       0.00434177
Ti       5.07832794       0.92899586      18.80349898  F      -0.00779394      -0.00078721       0.00693018
Ti       2.61170686       5.80991275      18.82004613  F      -0.02195665      -0.01234014      -0.00227110
Ti       3.83034904       3.41901133      19.38444949  F      -0.00871134      -0.00583995      -0.00457900
Ti       1.24355168       8.28382962      19.47362024  F      -0.00566616      -0.00386632      -0.01478004
Ti       2.37190390       1.20951873      20.18606696  F      -0.00523355       0.00161092      -0.00904523
Ti       4.89787016       6.07890462      20.29316379  F      -0.00670421      -0.01821692      -0.01589746
Ti       1.56219488       3.95446293      20.90575305  F       0.01143351       0.01575934      -0.01241066
Ti       3.93512671       8.86938850      20.91080913  F       0.00899587       0.00864055      -0.01229856
Ti       4.87346444       1.84577897      21.55162814  F       0.02051162       0.01795178      -0.00321385
Al       2.30901185       6.63492504      21.58353502  F      -0.00182344      -0.00469387       0.01263397
Ti       1.37967106       9.26123817      22.23450449  F       0.00581242      -0.00518716       0.00362460
Ti       3.92506113       4.44643951      22.37925374  F      -0.01004642       0.00806930       0.01295293
Ti       4.82469881       7.07486602      22.96652434  F      -0.00846409      -0.00209257       0.01237548
Ti       2.31832938       2.16992294      22.96219603  F      -0.01025337      -0.00245104      -0.00272259
Ti       1.42534272       4.85578047      23.62680157  F      -0.01061285      -0.00154660       0.01511278
Ti       4.04036237       0.02439626      23.64871122  F      -0.01703367       0.02276106       0.02329780
Ti       2.35411358       7.49645867      24.34533856  F       0.00836493      -0.01389981      -0.00369409
Ti       4.88512280       2.64247018      24.38954090  F       0.00949573      -0.02430962      -0.02045404
Ti       4.04177705       5.29531241      25.12577414  F      -0.00888070       0.02921485       0.04175368
Ti       1.48434695       0.42414428      25.08214636  F      -0.00908596       0.03339185       0.03769384
Ti       4.88455286       7.96505186      25.74541127  F      -0.01685054      -0.08184886       0.03858585
Ti       2.33793130       3.10432396      25.73185180  F      -0.01590112      -0.07585487       0.04240357
Ti       1.44808950       5.74251870      26.45663227  F       0.05742839       0.00320468       0.19422271
Ti       3.98390252       0.86030651      26.45640245  F       0.04395887       0.01613225       0.19641981
Ti       2.32419164       8.37175354      27.17831016  F      -0.04602428       0.24461750       0.48220663
Ti       4.87386137       3.49033021      27.19474239  F      -0.06491155       0.27998599       0.44941397
Ti       1.51129196       1.35146502      27.81671604  F      -0.10470161       0.23983144       0.67364173
Ti       4.05830027       6.22346097      27.84337534  F      -0.08383573       0.28282559       0.68146945
Ti       4.93731826       8.94303501      28.56061000  F       0.15338882      -0.10789945      -0.10030435
Ti       2.39643684       4.07560666      28.54636107  F       0.16062582      -0.10151311      -0.08157318
Ti       3.81796807       1.87757689      29.33721523  F       0.84155881      -0.43571888      -0.62512547
Ti       1.28354428       6.74800486      29.33771318  F       0.84261953      -0.41784240      -0.62878035
