52
Lattice="4.6568 0.0 0.0 0.0 7.770572 0.0 0.0 0.0 41.044546" Properties=species:S:1:pos:R:3:move_mask:L:1:forces:R:3 job_name=BondOrder-VacuumGB-CSL7-V-V-36-d-5.61 top_level=BondOrder-VacuumGB solute=V energy=-392.16426765 stress_kbar_3x3="_JSON [[-23.77935944, -0.41626695, -0.90124486], [-0.41626696, -27.01978271, -0.28651054], [-0.90124487, -0.28651057, -21.1749844]]" pbc="T T T"
Ti       1.81264077       7.39382359       8.21087934  F       1.07934425      -0.10594701       0.85409359
Ti       4.63212827       5.60037557       8.87034206  F      -0.11232952      -0.09928354       0.02510080
Ti       2.45663430       2.27653671       9.12050857  F      -0.55852260       0.30537764       0.68173678
Ti       4.56591789       0.62562429       9.59211040  F      -0.34629940      -0.30700000       0.19378734
Ti       2.35585649       5.01100100      10.33407266  F      -0.05015736      -0.03604962      -0.47404916
Ti       0.02345630       3.33727418      10.52373951  F      -0.00485949       0.25619307      -0.01959039
Ti       2.30912085       0.01262718      11.16140757  F      -0.03720446       0.21627756      -0.49686172
Ti       0.02920745       6.10518301      11.60378569  F      -0.01789096      -0.03728044      -0.26901869
Ti       2.33992558       2.76663445      12.11331268  F       0.02116859      -0.08712350      -0.23673101
Ti       0.00322716       1.11718291      12.51165000  F      -0.03944203      -0.06152503       0.12247831
Ti       2.34487576       5.56947200      13.13392636  F       0.04099775       0.01820103      -0.02959962
Ti       0.00737637       3.87345142      13.46614092  F      -0.00008266      -0.00945834      -0.01863740
Ti       2.33547368       0.56666896      14.09691350  F      -0.00148367       0.00821821       0.00353589
Ti       0.01578655       6.64215285      14.43717279  F       0.02397422       0.02206323      -0.02471876
Ti       2.33318253       3.32384663      15.05251262  F       0.02566704      -0.01889481      -0.01081461
Ti       0.01180499       1.67313625      15.44974174  F       0.00140067      -0.02786517      -0.00110772
Ti       2.35641997       6.10769290      15.96743660  F      -0.00440126      -0.01377810       0.00045870
Ti       4.64018454       4.42676277      16.40107223  F      -0.01519636       0.00153675       0.00249218
Ti       2.35016123       1.10590781      17.03586717  F      -0.00362634       0.02921128       0.00286349
Ti       0.02406169       7.20439258      17.23985857  F       0.00840512       0.01013699       0.03139742
Ti       2.23488214       3.82071255      17.97755219  F      -0.00639123      -0.02524292       0.01933115
Ti       0.13262101       2.16437627      18.44398241  F      -0.00209772      -0.00599285       0.03082062
Ti       2.29746953       6.61445076      18.69829442  F      -0.00237558       0.00521620       0.02954542
Ti       4.15147200       4.82821383      19.34417140  F      -0.00322885      -0.03607820      -0.00737188
Ti       2.71490509       1.63644361      20.05584278  F      -0.00443936       0.00261912       0.00175217
Ti       0.39416087       7.64573776      20.09192094  F      -0.00436606       0.04603600       0.00278347
Ti       1.25830927       4.82242475      20.77642083  F       0.00775843      -0.03762861       0.01405923
Ti       3.10993212       6.59318270      21.44717080  F       0.00100925       0.01076689      -0.01506986
Ti       0.62532442       2.17231780      21.67677399  F       0.00872602      -0.00954876      -0.01982638
Ti       3.17486654       3.80863708      22.12333865  F       0.01341882      -0.03062360      -0.00046269
Ti       0.70860663       7.19047549      22.96335633  F       0.00191406       0.00589743       0.00186667
Ti       3.03514857       1.11286247      23.02471793  F       0.00269975       0.01810977      -0.01321974
Ti       0.78627274       4.43542696      23.70129622  F       0.00038792      -0.01450161       0.00356894
Ti       3.05965730       6.09753677      24.18882334  F       0.00907939      -0.00949634       0.01001980
Ti       0.73325973       1.66827187      24.64339169  F      -0.00304151       0.00386944       0.00056891
Ti       3.08207048       3.28646241      25.02875893  F      -0.01185984      -0.01921014      -0.00818698
V        0.72433730       6.61583392      25.65830017  F      -0.01317339      -0.00910731      -0.00078558
Ti       3.07254267       0.50594194      25.96104475  F       0.00736465      -0.00634647      -0.01249623
Ti       0.74241500       3.90036091      26.59284344  F       0.00907842       0.00771474       0.01401242
Ti       3.05704018       5.58802813      26.91881923  F      -0.01337307       0.00563152      -0.02911793
Ti       0.74785414       1.10955998      27.53456951  F       0.07817127       0.02181673      -0.02023957
Ti       3.07120617       2.76098525      27.93713441  F      -0.01846147      -0.04188995      -0.00212559
Ti       0.72171086       6.13121443      28.41834067  F       0.00464846      -0.03589207       0.03484532
Ti       3.11113357       0.02790412      28.92462515  F       0.03914138       0.02755526       0.32044420
Ti       0.72758309       3.33835429      29.51775988  F      -0.02713870      -0.03608391       0.25555562
Ti       3.04994788       5.01319230      29.70098273  F       0.07687954       0.25264085       0.45520562
Ti       0.84496239       0.63387664      30.45813147  F      -0.25314241       0.08825361       0.17607553
Ti       2.95316560       2.28541070      30.93080046  F       0.38605712       0.08767202      -0.14933226
Ti       0.77554347       5.60356150      31.16516482  F      -0.15098425      -0.13133659       0.27359452
Ti       3.59650718       7.39854809      31.83932149  F      -1.20622117      -0.09641015      -0.18869095
Ti       0.37658610       2.80600794      32.54816080  F       0.31757808      -0.17897432      -1.28236515
Ti       2.70195918       4.57455128      32.54393321  F       0.74692052       0.07755402      -0.23157421
