64
Lattice="5.872 0.0 0.0 0.0 6.890708 0.0 0.0 0.0 43.394398" Properties=species:S:1:pos:R:3:move_mask:L:1:forces:R:3 job_name=BondOrder-VacuumGB-T1g-V-V-48-d-6.96 top_level=BondOrder-VacuumGB solute=V energy=-485.83299847 stress_kbar_3x3="_JSON [[-18.88451453, 0.00076445, -0.00026079], [0.00076444, -28.88803324, -1.33041566], [-0.00026077, -1.33041569, -17.99737172]]" pbc="T T T"
Ti       4.40400000       5.20616418      34.62161292  F       0.00003134      -0.30007628      -0.45782570
Ti       1.46800000       5.20378688      34.63063896  F       0.00005444      -0.29192415      -0.45270480
Ti       5.87128362       3.18904723       8.53485359  F       0.00304627       0.16192192       0.96260879
Ti       2.93671051       3.18904723       8.53485359  F      -0.00314572       0.16182701       0.96277401
Ti       5.86889371       6.62760010       9.15322376  F       0.01548134      -0.19769330       0.14984234
Ti       2.93907693       6.62761388       9.15318037  F      -0.01549250      -0.19776189       0.14972266
Ti       4.40400587       1.76765954      10.44646361  F       0.00008154       0.03015967      -0.51017373
Ti       1.46796477       1.76533737      10.44681077  F      -0.00011445       0.03848000      -0.51859331
Ti       1.46795890       4.59341486      10.66148286  F       0.00010433       0.11614001      -0.35814326
Ti       4.40398238       4.59344242      10.66217717  F      -0.00003818       0.11730610      -0.35551155
Ti       0.00009395       6.72387707      11.97372945  F      -0.00218829      -0.10300990       0.01900734
Ti       2.93582384       6.72386329      11.97368606  F       0.00215809      -0.10323053       0.01916798
Ti       2.93578274       2.87565093      12.58689230  F      -0.00050644      -0.06696555       0.10118536
Ti       0.00013506       2.87566472      12.58697908  F       0.00060128      -0.06715053       0.10085214
Ti       4.40392954       5.00733969      13.74725850  F       0.00009379       0.05755726      -0.08595971
Ti       1.46796477       5.00684356      13.74630382  F      -0.00004132       0.05922751      -0.08460941
Ti       4.40393541       0.93113448      14.22208000  F       0.00013809       0.01658506       0.04063554
Ti       1.46795890       0.93090020      14.22129890  F      -0.00009601       0.01559427       0.04078179
Ti       2.93592954       3.09144035      15.40566221  F      -0.00090148      -0.02869860      -0.02872977
Ti       5.87197064       3.09142656      15.40574899  F       0.00100327      -0.02864586      -0.02904160
Ti       2.93555960       6.02550381      16.00893113  F       0.00059081       0.00182081      -0.04426510
Ti       0.00039342       6.02553827      16.00888773  F      -0.00065198       0.00179791      -0.04413654
Ti       4.40399413       1.29525327      17.19555094  F       0.00007900      -0.00775263       0.00273408
Ti       1.46802349       1.29581142      17.19346801  F      -0.00002600      -0.00545150       0.00136741
Ti       4.40397064       4.10979741      17.66772538  F      -0.00001257       0.01174483       0.03749287
Ti       1.46801762       4.10946666      17.66846309  F       0.00009435       0.01267426       0.03734005
Ti       2.93572989       6.23994265      18.82913305  F       0.00190571      -0.00298986       0.00718220
Ti       0.00035819       6.23991508      18.82908966  F      -0.00198941      -0.00291184       0.00743253
Ti       2.93369818       2.39409381      19.44355433  F      -0.00104039      -0.00236084      -0.00920525
Ti       0.00243101       2.39410759      19.44351094  F       0.00088077      -0.00235381      -0.00916654
Ti       1.46808221       4.52350863      20.75792726  F      -0.00012740      -0.01266296      -0.00620873
Ti       4.40405872       4.52082125      20.75692918  F       0.00002986      -0.00985690      -0.00498766
Ti       4.40411157       0.45526908      20.96708825  F      -0.00018950       0.01781386      -0.00512295
Ti       1.46808808       0.45956199      20.97147109  F      -0.00006603       0.01442135      -0.00583576
Ti       0.00258368       2.48430696      22.26588259  F       0.00328603       0.01137676       0.00342427
Ti       2.93355138       2.48428628      22.26592598  F      -0.00318910       0.01135797       0.00339076
Ti       5.86056722       5.92601577      22.88052084  F       0.00358503       0.00951439      -0.00171329
Ti       2.94756784       5.92605022      22.88056423  F      -0.00354715       0.00932686      -0.00156036
Ti       4.40410570       3.89956880      24.20122934  F      -0.00022813       0.00508640      -0.00785881
Ti       1.46805872       3.91323996      24.16134989  F       0.00006794      -0.00228455      -0.00237826
Ti       4.40400587       1.07426138      24.38274811  F       0.00009367       0.00211859       0.00327669
Ti       1.46800587       1.07920201      24.39745881  F       0.00010799       0.00362442      -0.00860538
Ti       0.02058723       5.83489305      25.71920878  F      -0.00246919      -0.00189681       0.00311568
Ti       2.91548323       5.83491372      25.71929557  F       0.00245087      -0.00180446       0.00306030
Ti       2.89493123       2.83072352      26.31653267  F       0.00401260       0.01635689      -0.00785510
Ti       0.04119795       2.83075108      26.31657606  F      -0.00409205       0.01636371      -0.00766054
Ti       4.40405285       0.71523482      27.46049579  F       0.00010996      -0.00935337       0.01453035
Ti       1.46802349       0.63515790      27.43406860  F      -0.00017998      -0.01975589       0.00736173
V        1.46788256       4.74764958      27.91283899  F      -0.00000161      -0.00748578      -0.02490160
Ti       4.40413506       4.76209250      27.90220736  F       0.00004076      -0.00265574      -0.00093871
Ti       2.89965819       2.62347858      29.09364396  F       0.00722136      -0.02886446      -0.03220999
Ti       0.03631832       2.62338901      29.09373074  F      -0.00714500      -0.02883625      -0.03251800
Ti       2.93087962       6.49318995      29.65633911  F       0.01117835       0.02582688       0.02400143
Ti       0.00510864       6.49321751      29.65642590  F      -0.01103813       0.02591930       0.02398160
Ti       4.40398238       4.37626109      30.89733211  F       0.00001225       0.02860015       0.03704223
Ti       1.46799413       4.36648317      30.86326751  F       0.00004215       0.02604180       0.02003907
Ti       4.40399413       1.54280196      31.30328670  F       0.00012593       0.01651365      -0.04692856
Ti       1.46805285       1.54061760      31.32376886  F      -0.00019469       0.00836947      -0.02736276
Ti       2.93602936       6.32358895      32.49385541  F      -0.00388214      -0.06530116       0.72618368
Ti       0.00004110       6.32358206      32.49385541  F       0.00371787      -0.06513826       0.72641513
Ti       0.00512626       3.25971144      33.10732201  F      -0.00695896       0.23862175       0.24725285
Ti       2.93085613       3.25974589      33.10732201  F       0.00705902       0.23860118       0.24726472
Ti       1.46797651       1.14048797      34.43163225  F       0.00006162       0.07796709      -0.75373396
Ti       4.40398826       1.14110814      34.42560043  F       0.00000613       0.05821460      -0.76402088
