64
Lattice="5.872 0.0 0.0 0.0 6.890708 0.0 0.0 0.0 43.394398" Properties=species:S:1:pos:R:3:move_mask:L:1:forces:R:3 job_name=BondOrder-VacuumGB-T1g-V-V-40-d-3.41 top_level=BondOrder-VacuumGB solute=V energy=-485.83111556 stress_kbar_3x3="_JSON [[-18.51595377, -0.00094725, 0.00010431], [-0.00094724, -29.26358926, 0.7625479], [0.00010431, 0.76254789, -18.19279724]]" pbc="T T T"
Ti       4.40397651       5.20717022      34.64370067  F       0.00004079      -0.27350325      -0.45936673
Ti       1.46793541       5.20787996      34.64465535  F       0.00006691      -0.27625262      -0.45881673
Ti       5.86841808       3.17990326       8.54010432  F       0.01323249       0.15790105       0.96934740
Ti       2.93957605       3.17990326       8.54010432  F      -0.01329429       0.15800899       0.96922969
Ti       0.00189078       6.62496096       9.16303090  F      -0.00797729      -0.21234990       0.14030775
Ti       2.93405050       6.62496096       9.16298750  F       0.00803015      -0.21239502       0.14022678
Ti       4.40398238       1.75596601      10.45557644  F       0.00039396       0.04393930      -0.51340650
Ti       1.46800000       1.75832263      10.45561983  F      -0.00038228       0.04420642      -0.51609539
Ti       1.46798238       4.58296855      10.66725431  F      -0.00022437       0.10778561      -0.35503724
Ti       4.40398826       4.58224502      10.66590908  F       0.00024125       0.11370980      -0.34610217
Ti       0.00096301       6.70988204      11.98171402  F      -0.00180526      -0.10369357       0.02075093
Ti       2.93506635       6.70986826      11.98171402  F       0.00182164      -0.10366962       0.02085659
Ti       2.93751498       2.86172481      12.59774089  F      -0.00211981      -0.06892583       0.10135516
Ti       5.87048502       2.86173170      12.59778429  F       0.00223785      -0.06900571       0.10087774
Ti       4.40404110       4.98983729      13.75658829  F      -0.00002287       0.06030345      -0.08710427
Ti       1.46804110       4.98943763      13.75784673  F      -0.00010965       0.05436387      -0.08853274
Ti       4.40398238       0.91200588      14.23323236  F       0.00016143       0.01334622       0.03121426
Ti       1.46800000       0.91261226      14.22863255  F      -0.00012035       0.01446443       0.04047668
Ti       2.93634645       3.06583448      15.41750888  F      -0.00574607      -0.04000766      -0.03036705
Ti       5.87168878       3.06587582      15.41750888  F       0.00582418      -0.04023418      -0.03022170
Ti       2.93705696       6.00750528      16.01969294  F       0.00236940      -0.00433865      -0.04150571
Ti       5.87097240       6.00748461      16.01969294  F      -0.00225808      -0.00406151      -0.04135513
Ti       4.40404110       1.26578861      17.22336675  F      -0.00005338      -0.01801628      -0.00026032
Ti       1.46805872       1.26498928      17.21403695  F      -0.00015940      -0.01196941       0.00241045
Ti       4.40399413       4.07710789      17.67301950  F       0.00015074       0.01312635       0.02700859
Ti       1.46804698       4.07517160      17.66863667  F      -0.00039603       0.00395371       0.03133604
Ti       2.93804933       6.18364556      18.83373286  F       0.00657569      -0.00672865       0.00165656
Ti       5.86996242       6.18365934      18.83377625  F      -0.00646896      -0.00684708       0.00143281
Ti       2.92400938       2.39495514      19.44841451  F       0.00582031      -0.00354925      -0.00432461
Ti       0.01202586       2.39496893      19.44841451  F      -0.00559966      -0.00359841      -0.00468910
Ti       1.46805872       4.48553394      20.82839976  F       0.00005072      -0.01187691      -0.00767823
Ti       4.40405872       4.49012315      20.83733900  F      -0.00014027      -0.01006626      -0.00432719
Ti       4.40395302       0.44285891      20.89184237  F       0.00014188       0.02512589       0.00016245
Ti       1.46808221       0.43283293      20.92017891  F      -0.00009921       0.01407294      -0.01167792
Ti       0.00018203       2.39403868      22.30276782  F      -0.00538747      -0.00102285      -0.00951329
Ti       2.93585320       2.39409381      22.30285461  F       0.00536601      -0.00110254      -0.00995375
Ti       5.80920483       6.07140282      22.89405989  F       0.00212129       0.00040531       0.00490904
Ti       2.99890674       6.07138215      22.89414668  F      -0.00209406       0.00037701       0.00471708
Ti       4.40402936       3.91670599      24.07933448  F      -0.00000129       0.01746087      -0.00869494
Ti       1.46798238       4.01208717      24.09191885  F      -0.00004766      -0.00766339      -0.00374046
V        4.40420552       1.11358665      24.40210201  F       0.00003581      -0.00922359       0.00194657
Ti       1.46801174       1.14440189      24.40566035  F       0.00000766      -0.00173039       0.00157965
Ti       5.83444856       5.90298013      25.67121457  F      -0.00567413      -0.00382751      -0.01677353
Ti       2.97362778       5.90304215      25.67125797  F       0.00554616      -0.00374892      -0.01682279
Ti       2.93200117       2.81609455      26.22609874  F      -0.00312955       0.02493646       0.00759427
Ti       0.00406342       2.81610833      26.22609874  F       0.00299628       0.02507303       0.00761587
Ti       4.40399413       0.69736032      27.41849001  F       0.00002404      -0.00897243      -0.00001611
Ti       1.46797064       0.69795292      27.45346589  F       0.00004367       0.00487630       0.00572574
Ti       1.46801762       4.74727748      27.88024980  F      -0.00010764      -0.00033419      -0.01137500
Ti       4.40398238       4.75101913      27.89370206  F       0.00024058      -0.00015263      -0.00086330
Ti       2.93806694       2.59860313      29.07654656  F       0.00066597      -0.02791312      -0.02067800
Ti       5.86992718       2.59857557      29.07650317  F      -0.00072883      -0.02770268      -0.02048087
Ti       2.94079742       6.54173498      29.68111732  F      -0.00425103       0.04664713       0.02591707
Ti       5.86716147       6.54172809      29.68111732  F       0.00425047       0.04662997       0.02579857
Ti       4.40397651       4.38008543      30.87073134  F       0.00006674       0.02519778       0.02955278
Ti       1.46796477       4.38158761      30.86721640  F       0.00000841       0.01094147       0.03616083
Ti       4.40399413       1.56193056      31.34338313  F      -0.00000982       0.00117575      -0.02820339
Ti       1.46800587       1.56447324      31.33453067  F      -0.00008101      -0.00440019      -0.02588545
Ti       2.93316382       6.32329265      32.50535492  F       0.00723919      -0.06414943       0.73807458
Ti       0.00285379       6.32331332      32.50531153  F      -0.00740500      -0.06410937       0.73836936
Ti       0.00041691       3.27635939      33.11565373  F       0.00087872       0.27657242       0.23112250
Ti       2.93551850       3.27633871      33.11565373  F      -0.00074305       0.27669108       0.23111533
Ti       1.46800000       1.14450525      34.42902858  F       0.00000086       0.06288754      -0.75508495
Ti       4.40399413       1.14407114      34.43562453  F      -0.00001348       0.06296285      -0.75989458
