64
Lattice="5.088765 0.0 0.0 0.0 9.739025 0.0 0.0 0.0 38.303587" Properties=species:S:1:pos:R:3:move_mask:L:1:forces:R:3 job_name=BondOrder-VacuumGB-T2-Al-Al-48-d-5.58 top_level=BondOrder-VacuumGB solute=Al energy=-477.7419557 stress_kbar_3x3="_JSON [[-17.85670506, 0.29250061, 0.72972192], [0.29250058, -20.07682435, 3.08298028], [0.72972191, 3.08298027, -19.14015918]]" pbc="T T T"
Ti       2.59676625       9.30894966       8.44019540  F       0.66712788       0.07079745       0.90308416
Ti       0.05712648       4.44546561       8.45624460  F       0.68525536       0.09225675       0.85027296
Ti       1.32892589       2.00946277       8.91956479  F      -0.69874885      -0.24129564       0.45440817
Ti       3.88354699       6.88635745       8.92944711  F      -0.70988753      -0.24546828       0.44185097
Ti       2.62915115       4.27907437       9.64419205  F      -0.08137360      -0.29738642       0.24027650
Ti       0.07691159       9.15854015       9.64855865  F      -0.03224415      -0.30945545       0.23387764
Ti       1.00175901       6.34002736      10.49583400  F       0.03675963       0.18262102      -0.76700218
Ti       3.53436611       1.46958966      10.48744551  F       0.03967359       0.20705128      -0.75423775
Ti       0.29699559       3.53195481      11.11577755  F       0.14012721       0.23867109      -0.39423330
Ti       2.84008555       8.40794376      11.11995265  F       0.13648889       0.22421331      -0.40306576
Ti       1.12033741       0.84772369      11.85400259  F      -0.08798792       0.04376740      -0.19410841
Ti       3.66948809       5.71478196      11.85105321  F      -0.08942642       0.05705589      -0.20134316
Ti       2.75568838       3.11975057      12.56281046  F       0.01888884      -0.14544439       0.03768495
Ti       0.21010493       7.98717892      12.56518529  F       0.01503986      -0.13452430       0.02938045
Ti       3.62590281       0.44253156      13.19114251  F      -0.00515923       0.06252985      -0.02478665
Ti       1.08118954       5.31001834      13.19164045  F      -0.00215353       0.06671301      -0.01835586
Ti       2.75336790       7.52375716      13.92438807  F      -0.01443991      -0.03699974       0.05152311
Ti       0.21112777       2.65426413      13.92431146  F      -0.01949947      -0.03668748       0.05722299
Ti       3.62591808       4.86642523      14.65767194  F      -0.00469238       0.00357284      -0.01040169
Ti       1.08121499       9.73808031      14.65709739  F      -0.00308127      -0.00253682      -0.01375568
Ti       0.21033901       7.06089052      15.28336103  F      -0.00645863      -0.00545026       0.00167569
Ti       2.75562222       2.18920621      15.28604229  F      -0.00504826      -0.00012861      -0.00031224
Ti       1.12028144       4.46115518      15.99442882  F      -0.00653826      -0.00851080      -0.01536403
Ti       3.66944738       9.33303426      15.99756972  F      -0.00781763      -0.00803089      -0.01703476
Ti       0.29680222       1.77682668      16.73299859  F      -0.01563536       0.00304626      -0.01130729
Ti       2.84003466       6.63987246      16.72897671  F      -0.01843092       0.00407360      -0.00192943
Ti       1.00154019       8.70789599      17.35298045  F      -0.00452933       0.02129638      -0.00598167
Ti       3.53394883       3.83914313      17.36144554  F      -0.00592628       0.02153149      -0.01033825
Ti       2.62917150       1.02959024      18.20443088  F       0.00859174       0.00826801       0.00817334
Ti       0.07726272       5.88909103      18.20002597  F       0.01685861       0.01090101       0.00416129
Ti       3.88349610       8.16075756      18.91948224  F       0.00464297       0.00209811       0.00592913
Ti       1.32891062       3.29873437      18.92924966  F       0.00717726      -0.01015878       0.00600529
Ti       0.05689748       0.86242962      19.39253154  F       0.00630379      -0.00076141       0.01268940
Ti       2.59667465       5.73791214      19.40881057  F       0.00723577      -0.00494372       0.01499077
Ti       3.87273336       3.43886921      20.09632165  F      -0.00085528      -0.02115308      -0.00056559
Ti       1.35268533       8.31591971      20.10068826  F       0.00038508      -0.02641206      -0.00510843
Ti       2.28476898       1.30556500      20.97335888  F      -0.00583771      -0.01124802      -0.00720548
Ti       4.85765874       6.21171571      20.96474058  F       0.00647517      -0.01335003      -0.00175760
Ti       1.52767779       4.06269271      21.59705619  F       0.01593990      -0.00600469      -0.01421567
Ti       4.08726043       8.95228708      21.57648716  F       0.00852566      -0.00749641      -0.00348907
Ti       4.90938603       1.87362285      22.28927861  F       0.00065566       0.02002493      -0.01834530
Ti       2.38297705       6.75773415      22.30475326  F      -0.00503113      -0.00136884      -0.02318405
Ti       1.36763104       9.31267970      23.05224776  F       0.03753919       0.00867634      -0.00666758
Ti       3.97883920       4.43184072      22.99073220  F      -0.00411619      -0.00889829      -0.01487804
Ti       4.82398129       7.08076787      23.71126098  F      -0.03437717       0.02553033       0.00303523
Ti       2.30351599       2.20697993      23.68532945  F       0.01258197       0.01145145       0.04196206
Ti       1.45549365       4.87400219      24.35962580  F      -0.02453448       0.02090130       0.00428645
Ti       3.92199261       9.73534365      24.32848498  F      -0.02882956      -0.00096322       0.01505226
Al       2.27207251       7.52186779      25.07605609  F       0.01071829       0.02175826       0.00393701
Ti       4.84645837       2.65323180      25.07597948  F       0.03863464      -0.02723809       0.02871876
Ti       3.92214018       5.30976513      25.82431666  F       0.05395928      -0.00858261       0.20248577
Ti       1.45573791       0.43192576      25.79298432  F       0.05695641      -0.05279712       0.17518501
Ti       4.82390496       7.96462334      26.44115762  F      -0.07483524      -0.02494863       0.11337494
Ti       2.30367883       3.09940575      26.46705085  F      -0.07987212      -0.00912067       0.11215247
Ti       1.36778370       5.73239011      27.10028575  F       0.10940625       0.05223453       0.42275492
Ti       3.97900713       0.87495401      27.16160979  F       0.15802668       0.06283779       0.56306003
Ti       2.38308392       8.28768628      27.84720570  F      -0.00615349       0.25802443       0.33690563
Ti       4.90987964       3.43278231      27.86306338  F      -0.02603293       0.28048927       0.31745378
Ti       1.52834950       1.24393645      28.55566884  F      -0.24162982       0.30044358       0.21674401
Ti       4.08789652       6.09344499      28.57600805  F      -0.24872415       0.33046182       0.26734977
Ti       4.85721093       8.83433775      29.18725669  F      -0.59568210      -0.58044592      -0.38247656
Ti       2.28506921       4.00147320      29.17894481  F      -0.58426343      -0.52618144      -0.39505208
Ti       3.87327277       1.86861699      30.05625017  F       0.75021532       0.02159074      -1.27186930
Ti       1.35301610       6.73081548      30.05165373  F       0.72966285       0.07910260      -1.18929206
