52
Lattice="5.088765 0.0 0.0 0.0 5.495746 0.0 0.0 0.0 48.722931" Properties=species:S:1:pos:R:3:move_mask:L:1:forces:R:3 job_name=BondOrder-VacuumGB-C1-Al-Al-28-d-1.38 top_level=BondOrder-VacuumGB solute=Al energy=-391.01722782 stress_kbar_3x3="_JSON [[-34.53067343, 0.55765061, -0.89228753], [0.5576506, -24.96313079, -2.45329206], [-0.89228751, -2.45329206, -22.12763906]]" pbc="T T T"
Ti       2.61562012       0.79093677       8.03718853  F       0.10158946      -0.03130873       1.57943106
Ti       0.01271173       1.60438412       9.38340311  F      -0.03922062      -0.58129727       0.32802193
Ti       0.79601515       4.34801441       9.37175833  F      -0.02603091       0.59913411       0.03802069
Ti       2.57668089       2.36133520      10.58525165  F      -0.24711360      -0.32067502      -0.64564856
Ti       3.37316930       5.10472367      10.59991725  F       0.22127246       0.37769258      -0.50073652
Ti       0.81593258       0.39157190      11.82003689  F      -0.04586290      -0.03808799      -0.23612319
Ti       0.03989083       3.13851612      11.84853981  F       0.02808418      -0.01826184      -0.38364277
Ti       3.36474739       1.18477842      13.07723468  F      -0.05557718      -0.02564507       0.03564459
Ti       2.55626477       3.93796580      13.07879381  F       0.07651811       0.02005195       0.02610837
Ti       0.02604939       4.71453120      14.30607572  F      -0.03955165       0.03342475       0.04076045
Ti       0.85193050       1.95434773      14.33063208  F       0.03713971      -0.00540683       0.02140290
Ti       3.38618127       2.74599345      15.53710930  F      -0.00355899       0.01664132      -0.00616280
Ti       2.58420209       5.49105263      15.58958389  F       0.00217171       0.01818129      -0.02040184
Ti       0.81765258       3.55776460      16.80721866  F       0.00064483       0.00130420       0.01112340
Ti       0.00443231       0.81532689      16.81969173  F       0.01187848       0.00186852       0.01615731
Ti       2.57378030       1.60176815      18.02373280  F       0.00359295       0.01231148       0.00496627
Ti       3.41631694       4.32319012      18.08882664  F      -0.00780575       0.00600055       0.00847258
Ti       0.86478472       5.12058989      19.25159939  F      -0.00190299       0.01661042       0.00023610
Ti       0.08480936       2.36705078      19.34651166  F      -0.00331473       0.01338429      -0.00650879
Ti       3.33172131       0.46258793      20.51094099  F       0.00352324       0.00975833      -0.00974301
Ti       2.56854396       3.21319781      20.58884895  F       0.00664889       0.01048527      -0.00515284
Ti       0.02966241       4.00503039      21.71507950  F       0.00131870       0.01593555       0.00210056
Ti       0.86266780       1.21473023      21.86188169  F      -0.00049293       0.01900549      -0.00581974
Ti       2.75515915       4.78198049      23.05159822  F      -0.01103526       0.00770030       0.00367613
Ti       3.47561123       2.00823902      22.94737987  F       0.00411685       0.00724494       0.01064502
Ti       0.78117123       2.91303665      24.16847397  F       0.00322946      -0.00557241       0.00017489
Ti       0.11478218       0.15933267      24.55630850  F      -0.00535528      -0.00636120      -0.01069860
Ti       3.05792540       1.81719589      25.61359610  F       0.00162785      -0.00529012       0.01196695
Al       2.55979128       4.57918747      25.76726823  F      -0.00637605      -0.00615494       0.00122083
Ti       0.02390702       3.70312708      26.85554361  F       0.00817676      -0.01053622      -0.00149848
Ti       0.93835809       1.02824858      27.12585844  F      -0.00200703      -0.00415275      -0.00411328
Ti       3.49261279       0.39196210      28.05003499  F      -0.00369372      -0.00120813       0.00207886
Ti       2.55726216       3.12332038      28.19829887  F      -0.00146343      -0.01536452       0.00891031
Ti       0.72344936       5.03695013      29.43371751  F       0.01063428      -0.00375900       0.00389680
Ti       5.05099110       2.31439603      29.47196501  F       0.00428241      -0.00746413       0.00021648
Ti       2.52026684       1.48977034      30.58050914  F       0.00631618       0.00143633      -0.00488655
Ti       3.35954668       4.26949119      30.72063629  F      -0.00800411      -0.01364201      -0.00541523
Ti       0.01100700       0.78423196      31.93700426  F       0.00016024      -0.01017247      -0.00947385
Ti       0.84662801       3.51197954      31.90869623  F      -0.01360922      -0.01995295      -0.00395732
Ti       3.33098853       2.71693745      33.12331018  F       0.00016556      -0.00167940       0.01986738
Ti       2.52796614       5.47656585      33.16803783  F       0.00068783       0.00709564       0.01569812
Ti       0.80794831       1.94324083      34.43171577  F       0.03901891       0.02623870      -0.04284258
Ti       5.07944238       4.68277678      34.38859598  F      -0.03665808      -0.01627127      -0.02263630
Ti       2.56229495       3.92226995      35.65017883  F       0.05096349      -0.04066210      -0.04284356
Ti       3.37271131       1.17166557      35.63755959  F      -0.07047932       0.01053325      -0.02952399
Ti       0.79345551       0.38036608      36.87741202  F      -0.02936244      -0.02100910       0.38032736
Ti       0.01430452       3.13286649      36.90747406  F       0.04880622      -0.04515566       0.22852573
Ti       2.55123198       2.35821911      38.11921336  F      -0.21958522       0.36056087       0.48915450
Ti       3.34685021       5.10963687      38.14250292  F       0.24943707      -0.32226563       0.65580645
Ti       0.82270573       4.34944330      39.33991767  F       0.04066525      -0.57177202      -0.32019353
Ti       0.04604315       1.59974571      39.35336520  F       0.02130597       0.58722863      -0.03235763
Ti       3.30752423       3.53907906      40.69017626  F      -0.10591564      -0.03070000      -1.59423109
