64
Lattice="5.872 0.0 0.0 0.0 6.890708 0.0 0.0 0.0 43.394398" Properties=species:S:1:pos:R:3:move_mask:L:1:forces:R:3 job_name=BondOrder-VacuumGB-T1g-V-V-39-d-3.19 top_level=BondOrder-VacuumGB solute=V energy=-484.95574458 stress_kbar_3x3="_JSON [[-18.00157663, 0.00041778, -0.00014893], [0.0004178, -23.40690069, 0.35223182], [-0.00014895, 0.35223181, -22.51244985]]" pbc="T T T"
Ti       4.40401174       5.15899039       8.20128086  F      -0.00001429      -0.11401008       1.17214734
Ti       1.46801762       5.15861829       8.19954508  F       0.00007034      -0.11328881       1.17653827
Ti       0.00012331       3.07051327       9.38981002  F      -0.00059869       0.27321143      -0.20357532
Ti       2.93590018       3.07050638       9.38985342  F       0.00064354       0.27319768      -0.20371491
Ti       0.00054022       6.75850977      10.00891790  F      -0.00273788      -0.44145306      -0.39853522
Ti       2.93553024       6.75853044      10.00891790  F       0.00253757      -0.44164675      -0.39845215
Ti       4.40401174       1.83587755      11.41003622  F      -0.00005391       0.13616511      -0.02086862
Ti       1.46800000       1.83631167      11.41038338  F       0.00009184       0.13629438      -0.02236366
Ti       1.46805285       4.67137633      11.43589928  F      -0.00004312       0.31790159      -0.22461340
Ti       4.40403523       4.67165885      11.43568231  F       0.00001332       0.31787042      -0.22506642
Ti       0.00035232       6.76878381      12.84031558  F       0.00009648      -0.11154558      -0.00249282
Ti       2.93566530       6.76877692      12.84031558  F      -0.00006117      -0.11146286      -0.00257920
Ti       2.93614680       3.03047825      13.45812162  F       0.00066349      -0.09017456      -0.06834686
Ti       5.87187669       3.03047825      13.45812162  F      -0.00063348      -0.09012579      -0.06824520
Ti       4.40400000       5.13154470      14.63016092  F      -0.00009385      -0.00990591      -0.00869462
Ti       1.46799413       5.13097277      14.63163633  F       0.00014593      -0.00906320      -0.00756431
Ti       4.40400587       1.05597344      15.06128426  F      -0.00001871       0.02852781       0.06030535
Ti       1.46801762       1.05509143      15.06019940  F       0.00002741       0.02668990       0.05961382
Ti       2.93676923       3.21688569      16.27515576  F      -0.00006412       0.01136059      -0.01231797
Ti       5.87121902       3.21690636      16.27515576  F       0.00010666       0.01118237      -0.01225601
Ti       2.93652261       6.14901286      16.87924917  F      -0.00077461      -0.00261424      -0.03066264
Ti       5.87149501       6.14903354      16.87929257  F       0.00074340      -0.00272350      -0.03077257
Ti       4.40401174       1.42203541      18.03913804  F       0.00003696       0.01655412       0.01169003
Ti       1.46798826       1.42061592      18.03601364  F       0.00004117       0.01695286       0.01153979
Ti       4.40402349       4.23666913      18.55219000  F       0.00001419      -0.00577257       0.01041510
Ti       1.46798238       4.24101716      18.54910900  F       0.00003556      -0.00824084       0.01043926
Ti       2.93752672       6.40418267      19.71910876  F       0.00071071      -0.00321638      -0.00148603
Ti       5.87050851       6.40423091      19.71910876  F      -0.00074588      -0.00333857      -0.00138446
Ti       2.93402114       2.43333639      20.31209321  F       0.00233212       0.00011652      -0.00804288
Ti       0.00201410       2.43332950      20.31213660  F      -0.00242994       0.00000154      -0.00805719
Ti       1.46801762       4.60484654      21.50535237  F       0.00011327      -0.01339212       0.00048426
Ti       4.40407046       4.58646214      21.53447001  F      -0.00010781      -0.00913403      -0.00258420
Ti       4.40405872       0.53048805      21.95122981  F      -0.00012118       0.00979304       0.00631254
Ti       1.46796477       0.53105997      21.97613819  F       0.00018412       0.00549259       0.00298317
Ti       0.05717566       2.64804396      23.15946003  F      -0.00423426      -0.01373786      -0.00050459
Ti       2.87889480       2.64800951      23.15937324  F       0.00416602      -0.01365927      -0.00012673
Ti       0.02815624       5.73411644      23.71829309  F      -0.00431215       0.01037653       0.00087172
Ti       2.90794358       5.73415779      23.71824969  F       0.00424930       0.01028266       0.00073612
Ti       4.40398826       3.78067652      25.11962838  F      -0.00016428      -0.00026782       0.00072376
V        1.46804110       3.89519320      25.12084342  F       0.00025458      -0.01675467      -0.00903851
Ti       4.40405872       0.91242621      25.12366406  F      -0.00015979       0.00617331      -0.00325062
Ti       1.46802936       0.99792611      25.12431498  F       0.00022064       0.00379984       0.00203497
Ti       0.02723434       5.73703810      26.52552009  F       0.00406977       0.00168083       0.04210885
Ti       2.90881264       5.73705878      26.52547669  F      -0.00418770       0.00170888       0.04230823
Ti       2.87951136       2.65909665      27.08487388  F       0.00058069       0.00417133      -0.01198328
Ti       0.05648864       2.65910355      27.08483048  F      -0.00062358       0.00427348      -0.01225153
Ti       4.40401174       0.54300846      28.28785338  F      -0.00018054       0.02226977      -0.02139244
Ti       1.46793541       0.54240208      28.26385628  F       0.00021238       0.02261679      -0.02536725
Ti       1.46797064       4.62019904      28.74089089  F       0.00022426       0.04496813      -0.02493743
Ti       4.40402936       4.60157346      28.71264114  F      -0.00035829       0.03857073      -0.01667706
Ti       2.93403875       2.45147962      29.93046153  F       0.00686723      -0.10480043       0.05226157
Ti       0.00192602       2.45145895      29.93033134  F      -0.00685971      -0.10487822       0.05307066
Ti       2.93769114       6.42708738      30.52453084  F       0.00633931       0.11705746       0.10239089
Ti       5.87028538       6.42714251      30.52453084  F      -0.00628436       0.11686120       0.10244747
Ti       4.40399413       4.26245415      31.69318537  F       0.00012091       0.02265834       0.24509479
Ti       1.46797064       4.26669194      31.69604940  F      -0.00007491       0.02893371       0.24008936
Ti       4.40400000       1.45156209      32.20450156  F       0.00005725      -0.26854515       0.40769651
Ti       1.46796477       1.45012194      32.20697504  F      -0.00000134      -0.26327381       0.40011214
Ti       2.93644627       6.18442421      33.36165658  F       0.00153331       0.36478406       0.08488849
Ti       5.87152437       6.18439665      33.36165658  F      -0.00148022       0.36487062       0.08473430
Ti       5.87120141       3.23949410      33.96874420  F      -0.00633430      -0.31142333       0.10344084
Ti       2.93681621       3.23945964      33.96874420  F       0.00627029      -0.31130695       0.10340044
Ti       1.46800587       1.08291611      35.19749998  F       0.00006349       0.11354278      -1.24741790
Ti       4.40401762       1.08402551      35.19667549  F      -0.00008340       0.10884392      -1.25525605
