64
Lattice="5.871999 0.0 0.0 0.0 6.890708 0.0 0.0 0.0 43.401158" Properties=species:S:1:pos:R:3:move_mask:L:1:forces:R:3 job_name=BondOrder-VacuumGB-T1m-Al-Al-42-d-3.62 top_level=BondOrder-VacuumGB solute=Al energy=-481.99373433 stress_kbar_3x3="_JSON [[-17.62598615, -2.602e-05, -0.00012318], [-2.602e-05, -25.62545386, 0.56679414], [-0.00012316, 0.56679413, -19.028867]]" pbc="T T T"
Ti       2.93601712       0.10152769      34.54055119  F       0.00017756      -0.28329349      -0.19373719
Ti       2.93603473       2.93832881      34.54176642  F      -0.00006580       0.12702471      -0.96563881
Ti       0.00004110       0.09918485      34.53851133  F      -0.00012859      -0.28055266      -0.18648830
Ti       0.00003523       2.93748815      34.53868494  F       0.00005590       0.11697214      -0.97353059
Ti       4.40244317       5.02788778       8.55020173  F       0.00695833      -0.00906550       0.91807745
Ti       1.46960281       5.02787400       8.55020173  F      -0.00699929      -0.00894097       0.91848378
Ti       4.40613079       1.32077646       9.16858143  F      -0.00718936      -0.27587206       0.13790352
Ti       1.46593868       1.32077646       9.16858143  F       0.00711180      -0.27632220       0.13918819
Ti       2.93602299       3.41260936      10.35065537  F      -0.00131297       0.15481212      -0.27783962
Ti       5.87198138       3.41207188      10.35056857  F       0.00149387       0.15737686      -0.27763146
Ti       2.93602886       6.23037145      10.75936407  F      -0.00108638       0.13355585      -0.56674495
Ti       0.00001762       6.23014406      10.75814884  F       0.00110242       0.12723641      -0.56642346
Ti       1.46849300       1.49271340      11.98167089  F       0.00239335      -0.03052246      -0.00677267
Ti       4.40355298       1.49273407      11.98167089  F      -0.00248182      -0.03065617      -0.00547192
Ti       1.46967914       4.43976585      12.58585841  F      -0.00372051      -0.00264174       0.06828476
Ti       4.40234335       4.43975896      12.58585841  F       0.00370403      -0.00238775       0.06841157
Ti       2.93601712       6.59695023      13.74466933  F       0.00000267       0.04052987      -0.09605138
Ti       0.00002349       6.59484856      13.74514674  F      -0.00006815       0.02966206      -0.09642353
Ti       2.93599363       2.51995259      14.25524055  F      -0.00002401       0.01660257       0.05334254
Ti       0.00002936       2.52055208      14.24612631  F       0.00008630       0.01655893       0.05599118
Ti       4.40500923       4.67641344      15.41695934  F      -0.00060523      -0.03354949      -0.00545206
Ti       1.46698977       4.67641344      15.41695934  F       0.00068100      -0.03351173      -0.00516859
Ti       4.39961874       0.72648045      16.01832579  F       0.00127075      -0.00379453      -0.02404544
Ti       1.47240375       0.72648045      16.01832579  F      -0.00130218      -0.00383181      -0.02411325
Ti       5.87198726       2.87496875      17.21650156  F      -0.00005146      -0.00889409       0.00055704
Ti       2.93599363       2.88096367      17.23989478  F       0.00007158      -0.01176993      -0.00432208
Ti       5.87198138       5.69899450      17.64782227  F      -0.00002053       0.01342835       0.03405628
Ti       2.93600537       5.70287397      17.66392410  F       0.00001920       0.01143642       0.03122473
Ti       1.47373669       0.90428139      18.83601577  F      -0.00268236      -0.01122474       0.00425746
Ti       4.39825056       0.90427450      18.83601577  F       0.00264540      -0.01115459       0.00430510
Ti       1.44036025       4.07054105      19.45048936  F       0.00904416       0.00642556      -0.00306273
Ti       4.43159765       4.07052726      19.45048936  F      -0.00900703       0.00644092      -0.00303549
Ti       2.93599363       2.11925103      20.84739904  F       0.00017389       0.00130481       0.00466986
Ti       0.00000587       2.10034292      20.87951589  F      -0.00012816       0.01989767      -0.00072964
Ti       2.93598188       6.14378971      20.90625101  F       0.00000335       0.00073037      -0.00756611
Ti       5.87198138       6.15241687      20.82556825  F      -0.00003439       0.00507913       0.00678347
Ti       4.43399929       4.10586971      22.29261420  F      -0.00450467      -0.00019273       0.00871814
Ti       1.43799384       4.10586971      22.29261420  F       0.00449714      -0.00018150       0.00872428
Ti       4.34624814       0.92930155      22.89315602  F       0.00252603      -0.00832543      -0.01390750
Ti       1.52573324       0.92930155      22.89319942  F      -0.00250969      -0.00828180      -0.01431905
Ti       2.93598188       5.66649793      24.04767022  F       0.00011265      -0.00750683       0.00490611
Ti       0.00000000       5.78590700      24.01147366  F      -0.00007309       0.00747877       0.01103340
Al       2.93599363       2.88859858      24.46262870  F       0.00011930       0.00059958      -0.00202946
Ti       0.00000587       2.93450447      24.49860826  F      -0.00007292       0.01789513       0.01195229
Ti       4.38276610       0.76081685      25.67486644  F      -0.00295043       0.00001225       0.00416708
Ti       1.48927987       0.76080996      25.67486644  F       0.00296499       0.00002783       0.00431699
Ti       4.41941325       4.67046676      26.24598228  F      -0.00711698       0.01989281      -0.02006938
Ti       1.45259750       4.67046676      26.24593888  F       0.00711727       0.01980975      -0.01973591
Ti       0.00002936       2.52013864      27.47657871  F      -0.00014721      -0.02218515       0.03164702
Ti       2.93603473       2.52019376      27.41846456  F       0.00013675      -0.01864811       0.00799585
Ti       0.00002936       6.58608358      27.92035555  F      -0.00009775       0.01192566      -0.03845839
Ti       2.93603473       6.59626116      27.89388085  F       0.00008867       0.00924084      -0.02615742
Ti       1.47782948       4.43716806      29.08762970  F      -0.00265549      -0.01400303      -0.03588257
Ti       4.39424586       4.43716806      29.08762970  F       0.00263204      -0.01401884      -0.03573433
Ti       1.47689583       1.48084760      29.68786771  F       0.00226315       0.00402378      -0.02124153
Ti       4.39517364       1.48084760      29.68786771  F      -0.00223861       0.00403374      -0.02118435
Ti       2.93602886       6.22719484      30.91325601  F       0.00016699       0.01802869       0.02374224
Ti       0.00004110       6.22486578      30.92675377  F      -0.00019729       0.00433402       0.02693982
Ti       2.93604060       3.40615276      31.32244212  F       0.00017679       0.01137992      -0.05365174
Ti       0.00004698       3.40431983      31.31315428  F      -0.00022009       0.01423024      -0.05426445
Ti       4.40623648       1.31920537      32.50586150  F      -0.01078902      -0.06549848       0.71410522
Ti       1.46584473       1.31920537      32.50586150  F       0.01079642      -0.06541334       0.71424140
Ti       4.40180899       5.02609620      33.12163713  F       0.00902495       0.20723692       0.31449037
Ti       1.47027809       5.02609620      33.12168053  F      -0.00913723       0.20701647       0.31436821
