64
Lattice="5.871999 0.0 0.0 0.0 6.890708 0.0 0.0 0.0 43.401158" Properties=species:S:1:pos:R:3:move_mask:L:1:forces:R:3 job_name=BondOrder-VacuumGB-T1m-Al-Al-46-d-5.43 top_level=BondOrder-VacuumGB solute=Al energy=-482.05404428 stress_kbar_3x3="_JSON [[-18.29315062, 5.019e-05, -0.00021864], [5.022e-05, -26.66280263, 0.43343337], [-0.00021864, 0.43343336, -16.62691798]]" pbc="T T T"
Ti       2.92669825       0.09840620      34.54016058  F       0.01705763      -0.30525877      -0.19207720
Ti       2.93585857       2.93569656      34.53807732  F      -0.02250709       0.13390095      -0.97630482
Ti       0.00937171       0.09841998      34.54016058  F      -0.01712325      -0.30553378      -0.19226212
Ti       0.00021726       2.93572413      34.53807732  F       0.02247687       0.13397240      -0.97632220
Ti       4.40404035       5.02885937       8.55823094  F      -0.00014069      -0.01180227       0.89205102
Ti       1.46801737       5.02418747       8.54629563  F       0.00013195      -0.01014074       0.95002887
Ti       4.40403448       1.31882639       9.16753980  F      -0.00004174      -0.26402824       0.15152042
Ti       1.46802324       1.31747581       9.16814742  F       0.00006247      -0.26728838       0.14114162
Ti       2.93591142       3.41013559      10.34696627  F      -0.00922280       0.13804496      -0.24842403
Ti       0.00014093       3.41013559      10.34696627  F       0.00925418       0.13812713      -0.24828356
Ti       2.93510696       6.22963415      10.75897346  F      -0.00164150       0.13705453      -0.55877617
Ti       0.00095126       6.22962037      10.75897346  F       0.00166760       0.13713757      -0.55862302
Ti       1.46802911       1.49092871      11.97741757  F      -0.00001929      -0.02589583      -0.01020366
Ti       4.40402861       1.49257559      11.97824220  F      -0.00006522      -0.03176415      -0.00874213
Ti       1.46801737       4.43929728      12.57904443  F       0.00005535       0.00038104       0.06002737
Ti       4.40402861       4.44125425      12.58086727  F      -0.00003602      -0.00788720       0.06052759
Ti       2.93645164       6.59483478      13.74189165  F       0.00294396       0.04317418      -0.10992890
Ti       5.87157034       6.59482789      13.74189165  F      -0.00291118       0.04318439      -0.10999071
Ti       2.93659257       2.52039359      14.24482427  F       0.00291560       0.01147397       0.03752712
Ti       5.87142942       2.52038670      14.24482427  F      -0.00299066       0.01154411       0.03745427
Ti       4.40401099       4.67442202      15.40780170  F      -0.00003393      -0.03235224      -0.00911756
Ti       1.46800562       4.67413950      15.40233315  F       0.00007488      -0.03094557      -0.01200679
Ti       4.40397576       0.73304041      16.01355166  F       0.00003696      -0.00457270      -0.02228190
Ti       1.46799975       0.73344696      16.00382980  F       0.00007302       0.00113600      -0.03244127
Ti       0.00249560       2.88677943      17.23286380  F      -0.00100743      -0.01531953      -0.00733367
Ti       2.93349216       2.88677943      17.23286380  F       0.00093232      -0.01537066      -0.00742032
Ti       5.87002014       5.70094458      17.63701538  F      -0.00237475       0.01951883       0.02609726
Ti       2.93797836       5.70092390      17.63701538  F       0.00228576       0.01977799       0.02611669
Ti       1.46798801       0.90062932      18.80680679  F       0.00000395      -0.00615879      -0.00358360
Ti       4.40398163       0.90144242      18.82612031  F       0.00009300      -0.00889579      -0.00816147
Ti       1.46799388       4.09164728      19.44836271  F      -0.00013364       0.01117825      -0.01563517
Ti       4.40395227       4.08559724      19.42284283  F       0.00023741      -0.00082897      -0.00679914
Ti       2.90626370       2.11730785      20.84071526  F      -0.00034553       0.00683003      -0.00960706
Ti       0.02971819       2.11729407      20.84075866  F       0.00038364       0.00700552      -0.00991039
Ti       2.92613454       6.18157835      20.86206863  F      -0.00606260       0.00108652       0.00389453
Ti       0.00981798       6.18157835      20.86206863  F       0.00608302       0.00097624       0.00387543
Ti       4.40399925       4.08093223      22.22039467  F      -0.00002863      -0.00952060       0.01470765
Ti       1.46799975       4.07640504      22.27047961  F       0.00006959       0.00310303       0.00354061
Ti       4.40399925       0.89446902      22.87254047  F       0.00000240      -0.00003982       0.01289828
Ti       1.46800562       0.90109099      22.90070782  F       0.00001341      -0.01023375       0.00442520
Ti       2.96988093       5.69382647      24.05296516  F      -0.00010600       0.00900830       0.00813839
Ti       5.83815867       5.69380580      24.05296516  F      -0.00007981       0.00914614       0.00811763
Ti       2.96335714       2.91539654      24.48220262  F      -0.00196839      -0.00267305       0.00373306
Ti       5.84464723       2.91540343      24.48220262  F       0.00199497      -0.00271325       0.00377129
Ti       4.40402861       0.66511181      25.66705423  F      -0.00012098       0.02270058      -0.02136946
Ti       1.46801149       0.79787508      25.69287792  F       0.00000395      -0.00056197       0.03225374
Al       4.40398163       4.71046043      26.27757832  F       0.00020361       0.02679864       0.00875137
Ti       1.46799975       4.71919784      26.32566680  F       0.00001280       0.00303312      -0.00883365
Ti       5.84516984       2.54725357      27.44337683  F       0.00854277      -0.00960466      -0.00704753
Ti       2.96286390       2.54723290      27.44337683  F      -0.00850947      -0.00943803      -0.00711719
Ti       0.00386378       6.58177689      27.93454773  F       0.01089702      -0.01710980      -0.01933282
Ti       2.93220619       6.58177000      27.93454773  F      -0.01095683      -0.01713817      -0.01943862
Ti       1.46804673       4.44184685      29.17408480  F      -0.00010071      -0.00414041       0.00038957
Ti       4.40404623       4.42263555      29.08589365  F      -0.00002647       0.01977666      -0.02623499
Ti       1.46807021       1.47501117      29.68478623  F      -0.00029338       0.01549331      -0.00272530
Ti       4.40404035       1.51341998      29.67476056  F       0.00010121       0.00995482      -0.00951133
Ti       2.95497780       6.22856609      30.92319487  F      -0.01032012       0.01731235       0.04363281
Ti       5.85308529       6.22858676      30.92323827  F       0.01041587       0.01735770       0.04341790
Ti       2.95805473       3.39762896      31.33376983  F       0.02425159      -0.01720717      -0.03808936
Ti       5.85001424       3.39761517      31.33376983  F      -0.02418210      -0.01711594      -0.03804197
Ti       4.40399338       1.31125350      32.51328310  F       0.00006971      -0.04218692       0.69713681
Ti       1.46804085       1.31743446      32.51124324  F      -0.00008344      -0.07626881       0.69634192
Ti       4.40403448       5.02818408      33.13665393  F       0.00026031       0.22863031       0.31457998
Ti       1.46802911       5.02225807      33.11430233  F      -0.00017512       0.20217638       0.24588069
