64
Lattice="5.871999 0.0 0.0 0.0 6.890708 0.0 0.0 0.0 43.401158" Properties=species:S:1:pos:R:3:move_mask:L:1:forces:R:3 job_name=BondOrder-VacuumGB-T1m-V-V-42-d-3.62 top_level=BondOrder-VacuumGB solute=V energy=-485.76986851 stress_kbar_3x3="_JSON [[-18.90531763, 9.109e-05, 0.0003376], [9.109e-05, -28.41148169, 0.08789403], [0.00033758, 0.08789401, -18.14085402]]" pbc="T T T"
Ti       2.93603473       0.09797209      34.53391081  F       0.00006515      -0.29653931      -0.19941025
Ti       2.93605822       2.93371893      34.53716590  F      -0.00002533       0.12871222      -0.98426419
Ti       0.00005872       0.09786184      34.53386741  F      -0.00013562      -0.29830324      -0.19820273
Ti       0.00005285       2.93320213      34.53560346  F       0.00001720       0.13185110      -0.98634518
Ti       4.40256061       5.02679905       8.54811848  F       0.00580992      -0.01522320       0.94974289
Ti       1.46952060       5.02678527       8.54811848  F      -0.00588467      -0.01519485       0.94980400
Ti       4.40476261       1.31638018       9.16740960  F      -0.00219582      -0.25831069       0.17423130
Ti       1.46732447       1.31644220       9.16745300  F       0.00216022      -0.25871610       0.17400115
Ti       2.93603473       3.41112785      10.35095918  F      -0.00001926       0.13874093      -0.25060840
Ti       0.00002936       3.41170667      10.35204421  F       0.00003736       0.13754853      -0.25320357
Ti       2.93601124       6.22645753      10.76066611  F      -0.00000749       0.14335076      -0.55003162
Ti       5.87199313       6.22607165      10.75966788  F       0.00011716       0.14306220      -0.54947510
Ti       1.46826399       1.49201055      11.98188789  F       0.00063735      -0.03153583      -0.01346345
Ti       4.40373501       1.49201055      11.98188789  F      -0.00064316      -0.03155948      -0.01373835
Ti       1.46947362       4.44140584      12.58941730  F      -0.00390513      -0.00811211       0.05105440
Ti       4.40255474       4.44137139      12.58941730  F       0.00387925      -0.00800003       0.05096715
Ti       2.93601124       6.59861089      13.75143991  F       0.00000554       0.04235562      -0.11327392
Ti       5.87199313       6.59738434      13.75157011  F       0.00007283       0.04050263      -0.11022140
Ti       2.93600537       2.52006973      14.25593497  F       0.00000287       0.01137179       0.03732608
Ti       5.87197551       2.51958738      14.25059662  F       0.00016718       0.01330273       0.04246906
Ti       4.40519127       4.67762620      15.41743676  F      -0.00077163      -0.03192886      -0.00932827
Ti       1.46683709       4.67761242      15.41748016  F       0.00063012      -0.03184984      -0.00965699
Ti       4.40139208       0.73324024      16.02405474  F       0.00350777       0.00306872      -0.03277020
Ti       1.47063628       0.73325402      16.02405474  F      -0.00359675       0.00309367      -0.03279232
Ti       5.87198726       2.88610414      17.23759452  F       0.00000746      -0.00445095      -0.00580772
Ti       2.93599363       2.88873639      17.24831461  F       0.00008743      -0.00952472      -0.00811195
Ti       0.00001762       5.70317027      17.65090375  F      -0.00016318       0.02052736       0.03527207
Ti       2.93603473       5.70534085      17.65507026  F      -0.00010410       0.02282571       0.03709862
Ti       1.47316711       0.91092403      18.83961807  F      -0.00704606      -0.00958108       0.00480429
Ti       4.39884363       0.91097227      18.83961807  F       0.00699790      -0.00974132       0.00479880
Ti       1.45488758       4.08581086      19.45261602  F      -0.00209842       0.00414124      -0.01633091
Ti       4.41711142       4.08578329      19.45257262  F       0.00208318       0.00416525      -0.01587245
Ti       2.93597601       2.13212287      20.85082773  F       0.00009027       0.00507324      -0.00301122
Ti       5.87198726       2.11705978      20.88980197  F       0.00007271       0.01802642      -0.01999509
Ti       2.93598188       6.17635519      20.88455043  F       0.00004759       0.00501873      -0.00640769
Ti       5.87198726       6.17180043      20.86276305  F      -0.00000477      -0.01033482       0.00797163
Ti       4.39431632       4.07165045      22.30398530  F       0.00416967       0.01096880       0.00983549
Ti       1.47768268       4.07163667      22.30394190  F      -0.00424876       0.01101571       0.01014557
Ti       4.34344720       0.95700220      22.90678398  F       0.00920349      -0.00326167      -0.00955784
Ti       1.52855768       0.95697464      22.90678398  F      -0.00932621      -0.00309693      -0.00948428
Ti       2.93601124       5.67310611      24.03469328  F      -0.00001165       0.00651249       0.01595673
Ti       0.00002936       5.76990678      24.05526543  F       0.00003404      -0.00532036       0.00463464
V        2.93592316       2.89112057      24.45186521  F       0.00000297      -0.00472923      -0.00461946
Ti       5.87196964       2.91851114      24.45056317  F       0.00012340      -0.02294701      -0.00990004
Ti       4.36376431       0.77814698      25.67417202  F       0.01691090       0.00047478      -0.00480243
Ti       1.50825818       0.77814009      25.67417202  F      -0.01692020       0.00044561      -0.00487182
Ti       4.40645962       4.64061621      26.23560940  F       0.00049658       0.02585794      -0.00498907
Ti       1.46558636       4.64062999      26.23565280  F      -0.00052903       0.02576383      -0.00506852
Ti       0.00003523       2.51921528      27.45071162  F       0.00006641      -0.01139473       0.03234442
Ti       2.93604060       2.51388876      27.41321302  F      -0.00003350      -0.01098664       0.02615644
Ti       0.00004698       6.57870363      27.89796055  F      -0.00010936       0.00089527      -0.01834834
Ti       2.93601124       6.57844868      27.91549462  F       0.00004393      -0.00082629      -0.01815395
Ti       1.46881009       4.43975896      29.08012130  F       0.00188939      -0.03441083      -0.02799168
Ti       4.40321827       4.43975207      29.08007789  F      -0.00179278      -0.03435167      -0.02784182
Ti       1.47111191       1.47643066      29.68877914  F       0.00204662       0.01469521      -0.00983583
Ti       4.40095168       1.47642377      29.68873573  F      -0.00204540       0.01483132      -0.00967197
Ti       2.93604648       6.21890531      30.91338621  F      -0.00009693       0.01656877       0.04617992
Ti       0.00000587       6.21746516      30.91104255  F       0.00017143       0.01049754       0.03654550
Ti       2.93599950       3.40196321      31.31684337  F       0.00013431       0.01514115      -0.05080775
Ti       0.00003523       3.40373412      31.30985579  F      -0.00016845       0.01502586      -0.05118060
Ti       4.40701159       1.31395465      32.50238941  F      -0.00838868      -0.06136831       0.69069248
Ti       1.46506962       1.31396844      32.50238941  F       0.00839752      -0.06150939       0.69080613
Ti       4.40348839       5.02132783      33.11907646  F       0.00198389       0.19885440       0.28336890
Ti       1.46856933       5.02132094      33.11911986  F      -0.00189868       0.19882197       0.28324068
