64
Lattice="5.872 0.0 0.0 0.0 6.890708 0.0 0.0 0.0 43.394398" Properties=species:S:1:pos:R:3:move_mask:L:1:forces:R:3 job_name=BondOrder-VacuumGB-T1g-Al-Al-38-d-3.19 top_level=BondOrder-VacuumGB solute=Al energy=-480.10887798 stress_kbar_3x3="_JSON [[-17.57094254, 9.7e-06, 0.00012122], [9.68e-06, -24.74524419, 0.95729263], [0.00012121, 0.95729266, -21.38654764]]" pbc="T T T"
Ti       4.40372402       5.21357169      35.08328592  F       0.00024703       0.21704799      -0.39478723
Ti       1.46818790       5.21131843       7.68974769  F       0.00026471      -0.15555219       1.45259403
Ti       5.86758426       3.18951579       8.97495958  F       0.68999929       0.10796492       0.31835729
Ti       2.94033354       3.18937109       8.97513316  F      -0.69006187       0.10816250       0.31825221
Ti       0.00075749       6.63514542       9.59198452  F       0.39689310      -0.25818436      -0.32440433
Ti       2.93530710       6.63531769       9.59224489  F      -0.39728724      -0.25861116      -0.32452435
Ti       4.40412331       1.76757685      10.87988686  F      -0.00022235       0.22605150      -0.21699007
Ti       1.46775925       1.76759063      10.87975668  F       0.00026953       0.13545258      -0.01928031
Ti       1.46799413       4.59956826      11.09507968  F      -0.00010852       0.12071592      -0.78189808
Ti       4.40405285       4.59788004      11.09538344  F      -0.00008708       0.16507667      -0.09839173
Ti       0.00022901       6.72566176      12.40858471  F      -0.04819632      -0.07112068       0.03679193
Ti       2.93563594       6.72563420      12.40880169  F       0.04837613      -0.07097899       0.03594550
Ti       2.93756195       2.87727025      13.01636665  F      -0.03126078      -0.05628986       0.02916506
Ti       5.87029712       2.87724958      13.01645344  F       0.03119809      -0.05632524       0.02912479
Ti       4.40392954       5.00546542      14.17217644  F      -0.00002040       0.07227623      -0.02964648
Ti       1.46786494       5.00326728      14.17248020  F       0.00021460      -0.01679095      -0.05713917
Ti       4.40397651       0.93493126      14.65420142  F      -0.00010024       0.01245231       0.05204206
Ti       1.46788843       0.93444891      14.65368068  F       0.00008506       0.02854488       0.04972190
Ti       2.93531885       3.09161261      15.83860811  F       0.00438083      -0.01535403      -0.00876074
Ti       0.00058133       3.09161950      15.83865151  F      -0.00439345      -0.01527239      -0.00856722
Ti       2.93655784       6.02430483      16.43675650  F       0.00950495       0.00506342      -0.02545901
Ti       5.87128949       6.02430483      16.43688668  F      -0.00941445       0.00512531      -0.02553873
Ti       4.40398826       1.28967180      17.61777843  F      -0.00003523       0.00775110       0.01123184
Ti       1.46801174       1.28597149      17.61812559  F      -0.00003340      -0.00337528      -0.00365639
Ti       4.40398238       4.11414545      18.10835210  F      -0.00001433       0.00843864       0.02545084
Ti       1.46798238       4.11485519      18.09854497  F      -0.00001596       0.00710558       0.02505135
Ti       2.94678099       6.23957744      19.25600375  F      -0.00291522      -0.00506023       0.00785404
Ti       5.86128947       6.23957744      19.25613393  F       0.00293897      -0.00507660       0.00749194
Ti       2.93297005       2.40631792      19.87124952  F      -0.00207119      -0.00093190      -0.00055998
Ti       0.00311803       2.40634548      19.87124952  F       0.00191536      -0.00084296      -0.00044067
Ti       1.46815267       4.51607355      21.16969670  F      -0.00005176       0.00694211       0.00585463
Ti       4.40408808       4.53049581      21.17668320  F      -0.00011953      -0.00933552       0.01783911
Ti       4.40397064       0.48909556      21.42086347  F       0.00009699       0.00787263      -0.00067326
Ti       1.46812918       0.46084366      21.39465326  F      -0.00001255      -0.00007409      -0.00624852
Ti       0.02532594       2.45944528      22.70629233  F       0.01067182      -0.00625258       0.00751035
Ti       2.91092069       2.45954175      22.70629233  F      -0.01084052      -0.00649121       0.00749404
Ti       5.85767232       5.92718030      23.28690938  F       0.00421278      -0.00861464       0.00363216
Ti       2.95045686       5.92713207      23.28695277  F      -0.00417629      -0.00860138       0.00383644
Al       4.40408808       3.92168108      24.54079051  F       0.00040387      -0.00315852      -0.02269604
Ti       1.46805285       3.84698581      24.58218876  F      -0.00000063      -0.00457145       0.00114128
Ti       4.40418790       1.11806561      24.80705853  F      -0.00001846       0.00607081       0.00672382
Ti       1.46812918       1.01402970      24.80193799  F      -0.00008691      -0.01040176       0.01192038
Ti       5.84174746       5.80710282      26.09153271  F       0.00054597      -0.02548824       0.00360173
Ti       2.96640522       5.80711660      26.09161950  F      -0.00055987      -0.02553425       0.00324925
Ti       2.95528365       2.80708839      26.67883250  F       0.00831121       0.00863986      -0.02206764
Ti       5.85282792       2.80710906      26.67883250  F      -0.00828165       0.00860107      -0.02169999
Ti       4.40403523       0.69572722      27.83238578  F       0.00001088       0.01407840      -0.00388587
Ti       1.46796477       0.66360274      27.87144074  F       0.00000426       0.01116842      -0.01445138
Ti       1.46799413       4.72478621      28.32790641  F       0.00005741       0.04847663      -0.02272385
Ti       4.40404698       4.76138276      28.38306069  F       0.00002782      -0.00430553       0.00994832
Ti       2.93402701       2.57861318      29.51378852  F       0.00700217      -0.08973379       0.00724999
Ti       0.00190840       2.57857873      29.51387531  F      -0.00686700      -0.08974552       0.00680800
Ti       2.94388610       6.54465664      30.12052899  F      -0.00769180       0.09351186       0.04501752
Ti       5.86410216       6.54467043      30.12070257  F       0.00771499       0.09347248       0.04474350
Ti       4.40399413       4.38244894      31.30970907  F       0.00003212      -0.02663031       0.23425910
Ti       1.46804110       4.37713621      31.30046607  F      -0.00013781       0.01611056      -0.18084465
Ti       4.40395302       1.55974621      31.78965111  F       0.00011587       0.02376971       0.08832361
Ti       1.46792954       1.55546019      31.78505131  F       0.00008145      -0.18199960       0.34671982
Ti       2.93521315       6.32082578      32.94472320  F       0.23172516      -0.01636033       0.66706858
Ti       0.00068115       6.32082578      32.94494017  F      -0.23145178      -0.01648575       0.66670830
Ti       0.00053435       3.28148607      33.55016184  F       0.01417434       0.09368437       0.06039826
Ti       2.93555960       3.28151364      33.55024863  F      -0.01455978       0.09364957       0.05979581
Ti       1.46816442       1.15356654      34.86627054  F      -0.00011485      -0.40625497      -0.98074729
Ti       4.40405285       1.15273276      34.86618375  F      -0.00026754       0.17652821      -1.11283583
