64
Lattice="5.871999 0.0 0.0 0.0 6.890708 0.0 0.0 0.0 43.401158" Properties=species:S:1:pos:R:3:move_mask:L:1:forces:R:3 job_name=BondOrder-VacuumGB-T1m-V-V-39-d-2.03 top_level=BondOrder-VacuumGB solute=V energy=-485.97645603 stress_kbar_3x3="_JSON [[-18.90732261, -0.00037388, 0.00089595], [-0.00037391, -26.90235905, -1.2809495], [0.00089595, -1.2809495, -20.35867912]]" pbc="T T T"
Ti       2.94221795       0.09792385      34.53508264  F      -0.01312900      -0.29195639      -0.18341730
Ti       2.93714454       2.93442867      34.52948389  F       0.00232722       0.12716948      -0.96491040
Ti       5.86583927       0.09788940      34.53503924  F       0.01324374      -0.29045427      -0.18360354
Ti       5.87083047       2.93435288      34.52965750  F      -0.00213076       0.12645045      -0.96546116
Ti       4.40404623       5.02672325       8.54382176  F       0.00002033      -0.00048574       0.94977634
Ti       1.46799388       5.02748812       8.54534080  F      -0.00005311      -0.00338501       0.93543812
Ti       4.40406384       1.32455256       9.16597736  F      -0.00018258      -0.26271177       0.17281387
Ti       1.46795865       1.32342249       9.16272227  F       0.00021081      -0.25678335       0.19016689
Ti       2.93492492       3.41802545      10.35165360  F      -0.00002717       0.13463927      -0.27551797
Ti       0.00109806       3.41795654      10.35174040  F      -0.00001749       0.13442538      -0.27574981
Ti       2.93626374       6.23349294      10.75671660  F      -0.00409846       0.15845047      -0.54726580
Ti       5.87178174       6.23340336      10.75676000  F       0.00412475       0.15844011      -0.54730970
Ti       1.46805260       1.50191250      11.98805086  F      -0.00008600      -0.02651862      -0.00482334
Ti       4.40399338       1.50304257      11.98870187  F       0.00010077      -0.02579918      -0.01364572
Ti       1.46805260       4.45155585      12.59575387  F      -0.00012564      -0.00330505       0.06306194
Ti       4.40399925       4.45206577      12.59592748  F       0.00012890      -0.00384621       0.06446997
Ti       2.93884742       6.61283331      13.75842749  F      -0.00541269       0.04824236      -0.11190467
Ti       5.86923329       6.61286776      13.75842749  F       0.00525731       0.04822653      -0.11153481
Ti       2.93845400       2.54081076      14.26982334  F      -0.00138448       0.01313683       0.03614468
Ti       5.86955625       2.54085211      14.26973654  F       0.00143943       0.01285361       0.03610448
Ti       4.40404623       4.71354057      15.43449341  F      -0.00007471      -0.02303613      -0.01210116
Ti       1.46798801       4.70764902      15.43462362  F       0.00003782      -0.02409243      -0.01515160
Ti       4.40398751       0.74645662      16.05009544  F       0.00006987      -0.00527919      -0.03935523
Ti       1.46799388       0.74722838      16.02531338  F      -0.00001619      -0.00007556      -0.03870420
Ti       5.86990857       2.91475570      17.22865388  F      -0.00055030       0.00030980      -0.00972072
Ti       2.93806644       2.91468680      17.22874069  F       0.00068246       0.00073256      -0.00991278
Ti       5.86324385       5.74422511      17.70029427  F      -0.00016794       0.02434186       0.03939823
Ti       2.94473703       5.74422511      17.70025087  F       0.00031946       0.02417786       0.03973164
Ti       1.46802911       0.97839096      18.84890591  F       0.00007051      -0.01074961       0.02498113
Ti       4.40400512       0.98998113      18.88939919  F      -0.00020601      -0.00800853       0.01581659
Ti       1.46797039       4.05135042      19.45513329  F      -0.00003461       0.00817134      -0.00047650
Ti       4.40405210       4.06181052      19.47314477  F      -0.00010407       0.00264580       0.00074225
Ti       2.88858898       2.12215891      21.00815693  F       0.00849307       0.00687086      -0.01177879
Ti       0.04747511       2.12204176      21.00824373  F      -0.00843940       0.00691769      -0.01126050
Ti       2.92191257       6.18578857      20.83798098  F      -0.00375293       0.00077139      -0.01132018
Ti       0.01408105       6.18569899      20.83793758  F       0.00367697       0.00109544      -0.01090623
Ti       4.40400512       4.15548280      22.27121743  F       0.00038142       0.00516230      -0.02963631
Ti       1.46807021       4.14861277      22.24838842  F      -0.00047513       0.00666062      -0.02476070
Ti       4.40364693       0.83817883      22.89545628  F       0.00000088      -0.01157562      -0.02804802
V        1.46840492       0.80876929      22.86281861  F       0.00001435      -0.00819687      -0.02140603
Ti       2.90008048       5.70609193      24.04202807  F       0.00747839      -0.00882729       0.00622099
Ti       0.03596012       5.70627798      24.04202807  F      -0.00754667      -0.00914358       0.00612772
Ti       2.92571763       2.83170889      24.37118246  F      -0.00562067      -0.01012271      -0.00270990
Ti       0.01029361       2.83163998      24.37118246  F       0.00554931      -0.00992134      -0.00318494
Ti       4.40394640       0.73008429      25.67069993  F      -0.00002670      -0.00642729       0.02549924
Ti       1.46802324       0.70571875      25.61926956  F       0.00015501       0.00417136       0.02437978
Ti       4.40402861       4.62526371      26.22150402  F      -0.00004028       0.01411441       0.02281925
Ti       1.46801149       4.63942412      26.24407263  F      -0.00005545       0.01192892       0.02079045
Ti       0.00485614       2.50246397      27.39537514  F      -0.00508439      -0.03155751       0.05331076
Ti       2.93113748       2.50239506      27.39533174  F       0.00514814      -0.03134828       0.05362139
Ti       0.00726366       6.57217813      27.90403672  F      -0.00100220      -0.00410324       0.01104512
Ti       2.92875933       6.57215746      27.90403672  F       0.00100237      -0.00390193       0.01051387
Ti       1.46802911       4.41918331      29.08433121  F      -0.00016667      -0.03160248      -0.03041560
Ti       4.40399338       4.42340042      29.06614612  F       0.00024884      -0.03161219      -0.02538914
Ti       1.46802911       1.48008273      29.68752050  F      -0.00026280       0.00505928      -0.03397877
Ti       4.40399338       1.47830493      29.67246030  F       0.00030247       0.00446796      -0.03081898
Ti       2.93712692       6.21925674      30.91017452  F       0.00626173       0.01940204      -0.00159706
Ti       5.87091268       6.21925674      30.91021793  F      -0.00627998       0.01949928      -0.00159988
Ti       2.93681571       3.40225262      31.32530660  F       0.00558416       0.00684439      -0.08781398
Ti       5.87128849       3.40223195      31.32530660  F      -0.00571009       0.00753710      -0.08689647
Ti       4.40405797       1.31122593      32.49613964  F       0.00132881      -0.07057128       0.68850148
Ti       1.46800562       1.31010275      32.50959400  F      -0.00134859      -0.06639082       0.67895393
Ti       4.40403448       5.02528309      33.11916326  F       0.00209707       0.21687784       0.29282520
Ti       1.46801737       5.02298849      33.12176733  F      -0.00214323       0.21199483       0.30083259
