64
Lattice="5.088765 0.0 0.0 0.0 9.739025 0.0 0.0 0.0 38.303587" Properties=species:S:1:pos:R:3:move_mask:L:1:forces:R:3 job_name=BondOrder-VacuumGB-T2-V-V-44-d-4.19 top_level=BondOrder-VacuumGB solute=V energy=-481.80522578 stress_kbar_3x3="_JSON [[-16.75922422, -5.74015274, 0.67691451], [-5.7401527, -21.53032132, 0.34430276], [0.67691449, 0.34430278, -20.83278717]]" pbc="T T T"
Ti       2.56620821       9.33486520       8.43012155  F       0.72428025       0.11381463       0.89960148
Ti       0.01370913       4.46589809       8.43877816  F       0.73402862       0.09688978       0.88880228
Ti       1.28617009       2.02030230       8.91301487  F      -0.72218486      -0.27510611       0.54015195
Ti       3.83368727       6.89228851       8.90876318  F      -0.73429592      -0.27707658       0.52873431
Ti       2.60560543       4.27782778       9.66238625  F      -0.11964675      -0.26998234       0.16281096
Ti       0.06418459       9.14435039       9.65066535  F      -0.11391934      -0.25942663       0.17709339
Ti       0.98049815       6.36924444      10.47618426  F       0.08023869       0.25019855      -0.72378724
Ti       3.52975569       1.50193296      10.47733337  F       0.07640714       0.22929284      -0.72748708
Ti       0.25790879       3.58180888      11.12297863  F       0.12211154       0.23299606      -0.39823240
Ti       2.80519188       8.45290884      11.11608398  F       0.11506319       0.24174720      -0.39975964
Ti       1.09827762       0.90903085      11.82722838  F      -0.06351091       0.02512181      -0.19057185
Ti       3.64384580       5.77792980      11.83025436  F      -0.07435694       0.03298256      -0.17742067
Ti       2.71573140       3.18631681      12.57418663  F       0.00777290      -0.12663193       0.02123187
Ti       0.17066191       8.05808876      12.56579814  F       0.01585856      -0.13055835       0.02515081
Ti       3.59014915       0.53422448      13.19516438  F       0.00436946       0.05546183      -0.03015442
Ti       1.04685565       5.40040623      13.19229161  F       0.01415372       0.05416916      -0.02996620
Ti       2.75465027       7.59312823      13.89340047  F      -0.00755205      -0.04948779       0.02640762
Ti       0.21071558       2.72118098      13.89949074  F      -0.00681414      -0.05512017       0.03358083
Ti       3.61217842       4.93507562      14.66119587  F       0.01222153       0.02603087      -0.03339617
Ti       1.06838621       0.06381009      14.66004676  F       0.02632633       0.01593786      -0.04449481
Ti       0.22299477       7.13323199      15.35571651  F      -0.01907517       0.00106565      -0.01109752
Ti       2.76246661       2.26052509      15.37222536  F      -0.01674478       0.00121531      -0.00596743
Ti       1.11978783       4.48844393      15.95543577  F      -0.00862969       0.01848034      -0.01724569
Ti       3.66458252       9.35621314      15.95398024  F      -0.01467993       0.01389494      -0.01759992
Ti       0.16778676       1.90184654      16.72541448  F      -0.01686810       0.01010189       0.00922752
Ti       2.70546227       6.78869451      16.72675510  F      -0.02146415      -0.00550959       0.00110845
Ti       0.98009105       8.98604254      17.41185306  F       0.01071716       0.00760920       0.03381689
Ti       3.53593854       4.10572946      17.40683529  F       0.01560318       0.00118821       0.02353327
Ti       2.89696776       1.23260022      18.08400441  F      -0.00635145      -0.00232980       0.00870663
Ti       0.32164048       6.13216735      18.04719466  F       0.00050000      -0.01164863       0.00820513
Ti       3.80503243       8.24893470      18.94725235  F      -0.00166865      -0.00498008       0.01055261
Ti       1.26125549       3.36474549      18.90917858  F      -0.01886867      -0.01116690      -0.00202521
Ti       0.04928978       0.76182549      19.75170428  F      -0.00832061      -0.00502126      -0.00648580
Ti       2.56319058       5.62597179      19.70060729  F      -0.00636659       0.00815851      -0.01374331
Ti       3.81241623       3.17108497      20.01753117  F       0.02309835      -0.02373576       0.00474261
Ti       1.26726533       8.04584681      20.00956403  F       0.00143584      -0.00505501      -0.00691467
Ti       2.60573774       0.83989352      20.84749330  F      -0.00718289       0.01746396      -0.01901038
Ti       0.00892569       5.73229272      20.78061523  F      -0.00791496       0.02083133      -0.01613752
Ti       1.68864051       3.64156753      21.61161155  F       0.01133491       0.00942413       0.00158550
Ti       4.25227381       8.39616928      21.69718177  F       0.00928047       0.01391273      -0.00281444
Ti       4.72546789       1.88424812      22.33941801  F      -0.01136611      -0.00382380      -0.00401005
Ti       2.07432819       6.72313139      22.32838658  F       0.01299883       0.01202645       0.03129101
Ti       1.32659524       9.37662614      23.04742151  F       0.00055156      -0.00363805       0.01613951
Ti       3.91677153       4.63383783      23.03803713  F      -0.00208484      -0.01510618       0.02411157
V        5.02156277       7.10655680      23.90078713  F      -0.02941908      -0.01501207      -0.00836569
Ti       2.42303581       2.21854016      23.80142762  F      -0.01349762      -0.00757316       0.00300366
Ti       1.37715212       4.79049979      24.23552217  F      -0.01962847       0.03422288       0.01389086
Ti       3.91669520       9.66789116      24.24797084  F      -0.01036100       0.02808119       0.00702751
Ti       2.40964218       7.40463914      24.98753650  F      -0.01821734      -0.02141302       0.01479849
Ti       4.90341691       2.58217587      25.01591946  F       0.00984213      -0.02615352       0.01368331
Ti       4.04755788       5.23277813      25.77253021  F       0.02834399       0.01661137       0.13669529
Ti       1.48393985       0.34651451      25.78501718  F       0.04665541      -0.02303156       0.16291142
Ti       4.83097834       7.97973831      26.44552423  F      -0.04996321      -0.02387517       0.15592252
Ti       2.26442918       3.10424605      26.48072523  F      -0.08562394      -0.00503889       0.19538337
Ti       1.40983217       5.76405169      27.11342388  F       0.14848497       0.04451954       0.48532133
Ti       3.94963478       0.88823804      27.11809692  F       0.14122253       0.05591210       0.45634178
Ti       2.36217927       8.32960304      27.87260097  F      -0.00673811       0.27280483       0.29865928
Ti       4.89902022       3.47220589      27.88933964  F      -0.02551855       0.25971068       0.31474455
Ti       1.49234649       1.27093302      28.52406838  F      -0.27774481       0.27987391       0.18581878
Ti       4.04245385       6.14900613      28.51793981  F      -0.26123933       0.27718231       0.17784431
Ti       4.83524782       8.88778552      29.18966981  F      -0.61683603      -0.60006758      -0.39947256
Ti       2.28515063       4.02981376      29.19874776  F      -0.59956067      -0.58514660      -0.41706845
Ti       3.83228277       1.89354889      30.02943765  F       0.82062101       0.02589804      -1.19601001
Ti       1.29094335       6.75960404      30.02779060  F       0.81069339       0.03788391      -1.19939356
