64
Lattice="5.872 0.0 0.0 0.0 6.890708 0.0 0.0 0.0 43.394398" Properties=species:S:1:pos:R:3:move_mask:L:1:forces:R:3 job_name=BondOrder-VacuumGB-T1g-V-V-36-d-1.90 top_level=BondOrder-VacuumGB solute=V energy=-484.43085692 stress_kbar_3x3="_JSON [[-19.204708, 0.00018332, -0.00097347], [0.0001833, -23.08782255, 1.50143299], [-0.00097348, 1.50143297, -23.81219848]]" pbc="T T T"
Ti       4.40314269       5.21373018       8.11427509  F       0.00027035      -0.13521990       1.18051405
Ti       1.46885144       5.21368883       8.11427509  F      -0.00033241      -0.13499494       1.18052179
Ti       5.87194128       3.18717984       9.40126614  F       0.00023078       0.18796882      -0.31418185
Ti       2.93605872       3.18846152       9.39927000  F      -0.00030860       0.18915580      -0.31800545
Ti       0.00005872       6.63634440      10.02280411  F      -0.00009950      -0.37017766      -0.63647664
Ti       2.93590605       6.63657180      10.02184943  F       0.00012966      -0.36939191      -0.64711612
Ti       4.40271403       1.76903079      11.31170452  F      -0.00104084       0.23197732       0.32923471
Ti       1.46923899       1.76906525      11.31170452  F       0.00098718       0.23229293       0.32926092
Ti       1.46853435       4.59606089      11.52390312  F      -0.00234658       0.17976923      -0.30735484
Ti       4.40341867       4.59604711      11.52390312  F       0.00228617       0.17989271      -0.30736342
Ti       5.87197064       6.72481420      12.84166081  F       0.00006140      -0.03889148       0.05455377
Ti       2.93593541       6.72701234      12.83862320  F       0.00003619      -0.03978161       0.05216666
Ti       2.93598238       2.87636068      13.45287090  F      -0.00003600      -0.08036999      -0.03364779
Ti       5.87193541       2.87644337      13.45117852  F      -0.00000748      -0.07813482      -0.03072581
Ti       4.40094069       5.00778069      14.61137114  F       0.00391978       0.00536244      -0.02523243
Ti       1.47096536       5.00778759      14.61137114  F      -0.00390651       0.00532844      -0.02527089
Ti       4.40133998       0.93237481      15.09231126  F       0.00112133       0.01928971       0.04704917
Ti       1.47054845       0.93238859      15.09231126  F      -0.00110809       0.01941080       0.04719707
Ti       2.93597064       3.09933021      16.27736887  F       0.00000725      -0.00137244       0.00548407
Ti       5.87194715       3.09327327      16.27732548  F       0.00005492       0.00378824       0.00573471
Ti       2.93597064       6.02107309      16.89361272  F       0.00000565       0.00947943      -0.01509051
Ti       5.87197064       6.02145897      16.87217589  F       0.00001638       0.00757505      -0.00951419
Ti       4.40116382       1.29277262      18.05732029  F      -0.00108875      -0.00273763       0.00009797
Ti       1.47086554       1.29275195      18.05736368  F       0.00107423      -0.00273374      -0.00003305
Ti       4.39818672       4.11531687      18.55592192  F       0.00140733      -0.00174896       0.01673412
Ti       1.47379566       4.11530998      18.55592192  F      -0.00136578      -0.00178054       0.01656644
Ti       2.93598826       6.25457851      19.73308176  F       0.00008578      -0.00796923      -0.00373587
Ti       0.00008808       6.24755688      19.70092651  F      -0.00019999      -0.00832621       0.01037511
Ti       2.93614680       2.38262767      20.32506814  F      -0.00011289      -0.00557737      -0.00781656
Ti       5.87195302       2.36930104      20.30141819  F      -0.00011843      -0.00156112       0.00092373
Ti       1.45218083       4.50950671      21.64304279  F       0.00110370      -0.01059667      -0.00643797
Ti       4.42000707       4.50947915      21.64321637  F      -0.00112357      -0.01061076      -0.00647312
Ti       4.43445219       0.43383208      21.90718449  F      -0.00959353       0.01247837      -0.00177699
Ti       1.43775920       0.43407326      21.90701091  F       0.00966740       0.01270522      -0.00171605
Ti       5.87190018       2.47893220      23.08004828  F      -0.00025684      -0.00371175       0.00281479
Ti       2.93627598       2.48457569      23.11402609  F       0.00020787       0.00114387       0.00414810
V        0.00085731       5.92556098      23.69815809  F       0.00035089      -0.00650484      -0.00647368
Ti       2.93542454       5.92625695      23.74467688  F       0.00001944      -0.00316629      -0.00187874
Ti       4.45408229       3.93526267      24.93867374  F      -0.00722803      -0.01201326       0.00247878
Ti       1.41798230       3.93494569      24.93876053  F       0.00733625      -0.01200037       0.00225874
Ti       4.41678922       1.04753232      25.17669201  F       0.00391131      -0.00129679       0.00491060
Ti       1.45538107       1.04764946      25.17664862  F      -0.00400514      -0.00119751       0.00515478
Ti       0.00007634       5.81659822      26.48264642  F       0.00008181      -0.00543704       0.05130533
Ti       2.93594715       5.83865537      26.53701960  F      -0.00009259      -0.01795956       0.04765313
Ti       2.93611744       2.79753787      27.07910242  F       0.00004887       0.00978185      -0.00482716
Ti       5.87192954       2.81397221      27.10791630  F      -0.00013271       0.00736195      -0.01290829
Ti       4.40735878       0.67943759      28.25982060  F      -0.00217755       0.02381749      -0.02960551
Ti       1.46461186       0.67947893      28.25982060  F       0.00223834       0.02363732      -0.02965653
Ti       1.46035466       4.73900863      28.75846563  F       0.00055038       0.05005286      -0.01854855
Ti       4.41165709       4.73902930      28.75846563  F      -0.00055422       0.04996968      -0.01841218
Ti       2.93598826       2.57850982      29.92442971  F      -0.00000018      -0.12512006       0.03023785
Ti       5.87198826       2.57508514      29.94621369  F       0.00001295      -0.11598173       0.02373839
Ti       2.93598826       6.54307867      30.52839294  F       0.00003814       0.10198717       0.08206928
Ti       0.00000000       6.54265145      30.54193199  F      -0.00001881       0.10917140       0.08650761
Ti       4.40201526       4.38056778      31.72477649  F      -0.00346222       0.02483937       0.17257762
Ti       1.46997299       4.38054022      31.72477649  F       0.00337720       0.02486994       0.17259428
Ti       4.40161010       1.56069024      32.20558642  F      -0.00217283      -0.22716196       0.37467628
Ti       1.47036642       1.56069024      32.20558642  F       0.00219196      -0.22703035       0.37495092
Ti       2.93598238       6.32086023      33.36039814  F      -0.00017461       0.22392148       0.28749621
Ti       0.00002349       6.32127367      33.36929399  F       0.00015767       0.24028927       0.30244179
Ti       5.87197651       3.27991499      33.97633822  F       0.00051833      -0.21046776       0.17734783
Ti       2.93601174       3.28344303      33.97499300  F      -0.00043574      -0.19776238       0.18431540
Ti       1.46873987       1.15036236      35.29118848  F      -0.00928946       0.14077790      -1.42281003
Ti       4.40329536       1.15037614      35.29118848  F       0.00928299       0.14069253      -1.42300178
