64
Lattice="5.872 0.0 0.0 0.0 6.890708 0.0 0.0 0.0 43.394398" Properties=species:S:1:pos:R:3:move_mask:L:1:forces:R:3 job_name=BondOrder-VacuumGB-T1g-Al-Al-39-d-3.19 top_level=BondOrder-VacuumGB solute=Al energy=-482.15607757 stress_kbar_3x3="_JSON [[-17.21610288, 0.00024635, -8.9e-05], [0.00024635, -26.61899897, -0.46473994], [-8.903e-05, -0.46473995, -18.22594072]]" pbc="T T T"
Ti       4.40392366       5.21189725      34.65528698  F       0.00026826      -0.27411382      -0.45784520
Ti       1.46805872       5.21479134      34.65237955  F      -0.00032833      -0.28283569      -0.46865112
Ti       0.00613037       3.18644254       8.54440036  F      -0.02210637       0.16831237       0.94928789
Ti       2.92982266       3.18639430       8.54444375  F       0.02206523       0.16849351       0.94938713
Ti       5.86984498       6.63732978       9.16281393  F       0.01038148      -0.20925995       0.13220252
Ti       2.93814328       6.63730910       9.16272714  F      -0.01050557      -0.20906211       0.13338065
Ti       4.40400587       1.76864491      10.45362369  F      -0.00056569       0.04878412      -0.51651157
Ti       1.46788843       1.76778357      10.45375387  F       0.00073148       0.03240255      -0.50241705
Ti       1.46797064       4.59721164      10.66586569  F       0.00034310       0.11411595      -0.34561843
Ti       4.40399413       4.59916860      10.66538835  F      -0.00023759       0.09981744      -0.35632055
Ti       5.87099002       6.72449034      11.98227815  F       0.00202000      -0.09627568       0.01728390
Ti       2.93690429       6.72446278      11.98236494  F      -0.00210081      -0.09598780       0.01632089
Ti       2.93392131       2.87856570      12.59257696  F       0.00556520      -0.06683583       0.10655882
Ti       0.00197299       2.87853125      12.59257696  F      -0.00559177      -0.06660039       0.10695884
Ti       4.40392366       5.00421820      13.75129418  F       0.00030345       0.06062439      -0.09004530
Ti       1.46793541       5.00633365      13.75003574  F       0.00011331       0.06800824      -0.08294779
Ti       4.40399413       0.93470387      14.23045512  F      -0.00031412       0.01454756       0.03274697
Ti       1.46792366       0.93555143      14.23101925  F       0.00032124       0.01091061       0.02700525
Ti       2.93587669       3.09224656      15.41577310  F       0.00186950      -0.03075614      -0.02992502
Ti       0.00005872       3.09220521      15.41581650  F      -0.00182893      -0.03031190      -0.03018323
Ti       2.93461421       6.02717825      16.01361772  F      -0.00057489       0.00582203      -0.03096875
Ti       0.00133882       6.02719893      16.01357433  F       0.00047574       0.00552441      -0.03048640
Ti       4.40401174       1.28655720      17.19646222  F      -0.00008372      -0.00282895       0.01436102
Ti       1.46798826       1.29327564      17.19659241  F       0.00021756      -0.00966548       0.01472381
Ti       4.40398238       4.11665366      17.67262895  F       0.00012703       0.00582190       0.03590801
Ti       1.46801174       4.11499989      17.68525672  F      -0.00007968       0.01811434       0.03657966
Ti       2.92422664       6.23727594      18.83381965  F      -0.00157894      -0.00205058      -0.00605268
Ti       0.01184970       6.23730350      18.83386304  F       0.00152096      -0.00227207      -0.00640487
Ti       2.93957605       2.40977017      19.44702589  F       0.00500479      -0.01229576      -0.00451791
Ti       5.86848854       2.40977017      19.44702589  F      -0.00504461      -0.01227004      -0.00453537
Ti       1.46807634       4.52636138      20.76387229  F      -0.00010823      -0.00256166      -0.00020430
Ti       4.40405285       4.51689355      20.74768618  F       0.00005924      -0.01703548       0.00246214
Ti       4.40402349       0.45625445      20.96543927  F       0.00001646       0.02213477      -0.00892071
Ti       1.46807634       0.48916447      20.99598892  F      -0.00000322       0.00251218      -0.01218449
Ti       5.84106043       2.45036333      22.28002916  F      -0.00048745      -0.01362137      -0.00143131
Ti       2.96708637       2.45038400      22.28007255  F       0.00060102      -0.01381635      -0.00188539
Ti       0.01493837       5.92746971      22.86051602  F       0.00444087       0.00450853      -0.00483631
Ti       2.92119082       5.92746282      22.86055942  F      -0.00445837       0.00465683      -0.00519522
Ti       4.40402936       3.84389877      24.14993716  F       0.00017773      -0.01329740      -0.00103363
Al       1.46811157       3.91523138      24.09951287  F      -0.00072668       0.01269908      -0.00023024
Ti       4.40408808       1.00718723      24.37732381  F      -0.00005772       0.01244694      -0.00188431
Ti       1.46811744       1.11540579      24.38188022  F      -0.00003343      -0.01287326       0.00222191
Ti       0.03119794       5.79784171      25.65902075  F       0.01130205       0.00359405       0.00701346
Ti       2.90489014       5.79781415      25.65897735  F      -0.01119982       0.00381148       0.00767595
Ti       2.91357483       2.81171206      26.24714502  F       0.00265711       0.01287713       0.00039288
Ti       0.02250150       2.81170516      26.24714502  F      -0.00261363       0.01304535       0.00018632
Ti       4.40404698       0.66463635      27.43593456  F      -0.00018728      -0.01068935      -0.00010384
Ti       1.46800000       0.69520353      27.39670602  F       0.00016663      -0.02034828      -0.00231150
Ti       1.46799413       4.76402879      27.95996531  F       0.00030968       0.00135206      -0.04768697
Ti       4.40405872       4.72807997      27.89704343  F      -0.00027073      -0.01449201      -0.01880141
Ti       2.93708632       2.57644261      29.08305572  F       0.00546723      -0.03451513      -0.04205993
Ti       5.87093130       2.57647707      29.08305572  F      -0.00543047      -0.03490284      -0.04200523
Ti       2.92854843       6.55076870      29.68723593  F       0.00142632       0.03664547       0.01421213
Ti       0.00750442       6.55074803      29.68719253  F      -0.00143144       0.03698087       0.01471241
Ti       4.40401762       4.38067803      30.86426558  F      -0.00007777       0.01898816       0.03134804
Ti       1.46801174       4.38612858      30.87698014  F       0.00009125       0.02313439       0.05370864
Ti       4.40400587       1.55968419      31.35154127  F      -0.00001026       0.01119057      -0.00989046
Ti       1.46800000       1.56230266      31.35566374  F       0.00010433       0.01031727       0.00008162
Ti       2.93805520       6.32270005      32.51121316  F       0.00176357      -0.08493711       0.75528825
Ti       5.86993893       6.32270694      32.51125656  F      -0.00181368      -0.08493398       0.75505988
Ti       5.87139518       3.28345682      33.11704236  F      -0.00610931       0.30213866       0.23288464
Ti       2.93664592       3.28346371      33.11712914  F       0.00613832       0.30182747       0.23249250
Ti       1.46802936       1.15213327      34.43384536  F      -0.00004962       0.05697434      -0.75496672
Ti       4.40399413       1.15279478      34.43189261  F      -0.00004001       0.04831144      -0.76338292
