52
Lattice="4.6568 0.0 0.0 0.0 7.770572 0.0 0.0 0.0 41.044546" Properties=species:S:1:pos:R:3:move_mask:L:1:forces:R:3 job_name=BondOrder-VacuumGB-CSL7-Al-Al-32-d-3.65 top_level=BondOrder-VacuumGB solute=Al energy=-388.2435145 stress_kbar_3x3="_JSON [[-22.25491487, 0.11306307, -0.77325543], [0.11306307, -27.51653745, -0.7579739], [-0.77325544, -0.75797392, -18.05201236]]" pbc="T T T"
Ti       1.81375375       7.39364486       8.22524493  F       1.07016519      -0.13094692       0.83408735
Ti       4.63000943       5.59987825       8.88294273  F      -0.10141903      -0.08205129      -0.01203913
Ti       2.45627107       2.27300887       9.13167268  F      -0.59488501       0.31068587       0.65973026
Ti       4.56513555       0.62519691       9.59514770  F      -0.30600650      -0.37706220       0.23276104
Ti       2.35774250       5.00599675      10.34129650  F      -0.07568670       0.02221610      -0.39679188
Ti       0.02327003       3.33561905      10.52960888  F       0.01703030       0.28377808       0.07247355
Ti       2.30689024       0.01058352      11.16518367  F      -0.03622502       0.17280665      -0.48108020
Ti       0.02929593       6.10341909      11.60546852  F      -0.00649821      -0.02199258      -0.24723954
Ti       2.33849129       2.76352623      12.11832012  F       0.02412009      -0.08239199      -0.20536886
Ti       0.00047965       1.11719068      12.50992613  F      -0.04182467      -0.08075434       0.09273268
Ti       2.34731126       5.56764592      13.13015027  F       0.04329179       0.03503990      -0.05287729
Ti       0.00800038       3.87415854      13.46655136  F      -0.00309251       0.00461575      -0.03311420
Ti       2.33367150       0.56706526      14.09494336  F      -0.00369629      -0.00281961      -0.01466791
Ti       0.01807770       6.64017135      14.42543405  F       0.02085246       0.01996656      -0.03807389
Ti       2.33242813       3.32320944      15.04857235  F       0.02420855      -0.01073926      -0.02517515
Ti       0.01149298       1.67645429      15.43985000  F       0.00150804      -0.04028717      -0.02031455
Ti       2.35762142       6.10609994      15.94752999  F      -0.00005535      -0.00617302      -0.01688783
Ti       4.63407482       4.42583807      16.40053865  F      -0.01622428       0.01645691       0.00066691
Ti       2.34745563       1.11979382      17.02121427  F      -0.00408214       0.01978000      -0.01902260
Ti       0.03384097       7.20334356      17.21231768  F       0.00874366      -0.00053802       0.01699590
Ti       2.22769670       3.82306703      17.97484325  F      -0.00077702       0.00041421       0.01542781
Ti       0.12467185       2.16241809      18.43121756  F       0.00655103       0.00990952      -0.00184216
Ti       2.32172681       6.63146054      18.65564914  F      -0.00351411      -0.00877279       0.02059316
Ti       4.12422972       4.80131988      19.35689521  F      -0.00647045      -0.00184501       0.00846710
Ti       2.69297622       1.69724834      20.05904425  F      -0.00651587      -0.00022354       0.00270589
Ti       0.40125317       7.64734627      20.04196972  F      -0.00052766      -0.00318919      -0.00118930
Ti       1.23098783       4.86223339      20.83470408  F      -0.01129624      -0.00863933       0.01986578
Ti       3.06370406       6.69382715      21.32707446  F      -0.00822619       0.01432855      -0.01222097
Ti       0.59718803       2.17536386      21.68551648  F      -0.01449319       0.00095960      -0.00276320
Ti       3.14544022       3.81402208      22.21347247  F       0.00954539      -0.00736773      -0.00597809
Ti       0.74692278       7.13389018      22.83706226  F      -0.00956230      -0.01618629      -0.00234291
Ti       3.07195591       1.02895583      23.05193046  F      -0.00360492      -0.01539502       0.00345992
Al       0.77769491       4.39261110      23.71307601  F      -0.00863036      -0.01560117       0.00649236
Ti       3.06453297       6.01365344      24.11974537  F      -0.00201264      -0.00909460      -0.00581024
Ti       0.73373938       1.67142673      24.61129485  F      -0.00968307      -0.00446507       0.00874701
Ti       3.09481614       3.32845458      25.01492692  F       0.01297348      -0.02937049       0.01774613
Ti       0.74259661       6.60307464      25.63129286  F      -0.01138650      -0.03032914      -0.00516147
Ti       3.06788587       0.54700165      25.96322011  F       0.00720204       0.00278052      -0.01639239
Ti       0.75731676       3.90676386      26.59973893  F       0.00990224       0.03377355       0.02989388
Ti       3.07617032       5.60310304      26.97853904  F      -0.02769983       0.01462623       0.00940670
Ti       0.74502280       1.11936644      27.54725227  F       0.09881653       0.02400667      -0.01713874
Ti       3.07311080       2.77527533      27.94091051  F      -0.01037145      -0.02009126       0.00968509
Ti       0.73457295       6.12870453      28.48027689  F       0.03454855      -0.08125570       0.08901114
Ti       3.11342472       0.03297054      28.92950945  F       0.01607556      -0.00191440       0.22490502
Ti       0.72821176       3.33575892      29.53536799  F      -0.01371082       0.00993164       0.27661843
Ti       3.05390150       5.01319230      29.74124743  F       0.07029012       0.24421803       0.45861941
Ti       0.85003364       0.62668109      30.47401571  F      -0.20540452       0.13909258       0.10478846
Ti       2.95109798       2.27521571      30.94664366  F       0.38336241       0.18265380      -0.18106811
Ti       0.77966474       5.59308677      31.19713852  F      -0.09093440      -0.22329159       0.27838240
Ti       3.59366187       7.39502803      31.85274306  F      -1.27122825      -0.15213196      -0.15823345
Ti       0.38086570       2.79933302      32.55723164  F       0.33148080      -0.14034024      -1.27152539
Ti       2.70852061       4.56695166      32.56281370  F       0.71507727       0.04322022      -0.24994393
