52
Lattice="4.6568 0.0 0.0 0.0 7.770572 0.0 0.0 0.0 41.044546" Properties=species:S:1:pos:R:3:move_mask:L:1:forces:R:3 job_name=BondOrder-VacuumGB-CSL7-V-V-35-d-4.99 top_level=BondOrder-VacuumGB solute=V energy=-392.14726112 stress_kbar_3x3="_JSON [[-24.52303589, 0.02166831, -1.20352916], [0.02166831, -27.76602438, 0.22605781], [-1.20352916, 0.22605786, -20.08130546]]" pbc="T T T"
Ti       1.81597504       7.39343506       8.21523006  F       1.07590702      -0.13027516       0.84415477
Ti       4.63010257       5.59584533       8.87346144  F      -0.10529384      -0.08849342       0.01692089
Ti       2.45990338       2.27492820       9.11845634  F      -0.59313595       0.30942852       0.69533266
Ti       4.56784581       0.62114067       9.58890893  F      -0.31196466      -0.36256406       0.24854147
Ti       2.35673197       5.00953236      10.33509877  F      -0.06271453       0.00369248      -0.39073665
Ti       0.02423864       3.33519944      10.52575069  F       0.01440625       0.27942060       0.07014180
Ti       2.31096960       0.01274374      11.16144862  F      -0.03721203       0.17443055      -0.47187917
Ti       0.03104223       6.10281298      11.60185660  F      -0.00959252      -0.02764566      -0.23535654
Ti       2.34138782       2.76510365      12.11651416  F       0.02009168      -0.08289522      -0.20422895
Ti       0.00565801       1.11569873      12.50931046  F      -0.04075237      -0.08718409       0.09979205
Ti       2.34799116       5.56679893      13.13080698  F       0.03947417       0.03454970      -0.04478602
Ti       0.01143244       3.87192062      13.46893195  F      -0.00196911       0.00522622      -0.02834291
Ti       2.33808614       0.56488173      14.09564112  F      -0.00144606      -0.01090657      -0.01001780
Ti       0.02146319       6.63852399      14.42998999  F       0.02176471       0.01923844      -0.03772912
Ti       2.33456095       3.31907550      15.05764319  F       0.02534938      -0.02226301      -0.02428485
Ti       0.01330913       1.66909555      15.44506266  F       0.00227840      -0.04622365      -0.01870243
Ti       2.36028045       6.10151530      15.95811948  F      -0.00090848      -0.00650888      -0.01791834
Ti       4.64289480       4.42414409      16.40690055  F      -0.01608839       0.01063425      -0.00166735
Ti       2.35322074       1.09644325      17.03557986  F      -0.00367511       0.01366815      -0.02419458
Ti       0.03231819       7.18989270      17.22426164  F       0.01155802      -0.00276289       0.02059690
Ti       2.24206758       3.80861377      17.98674617  F       0.00045524      -0.00036113       0.01007434
Ti       0.11686705       2.15263494      18.42066911  F       0.00357986      -0.00088029       0.00213315
Ti       2.31398255       6.59998195      18.69492877  F      -0.00538956      -0.01450040       0.02126625
Ti       4.15208205       4.79546087      19.37072722  F       0.00603528      -0.01305999       0.00682166
Ti       2.69000518       1.64096608      20.04591000  F      -0.00095994      -0.01008300      -0.00115692
Ti       0.37203175       7.62546434      20.04890625  F      -0.00365168      -0.00798526      -0.00636130
Ti       1.28566331       4.81538462      20.80285352  F      -0.00420554      -0.00698727       0.00247250
Ti       3.10749195       6.61470719      21.43313356  F       0.00040485       0.00184343      -0.00936495
Ti       0.59128321       2.14907602      21.60851691  F      -0.00837688       0.00576276      -0.00182525
Ti       3.19665570       3.79716771      22.19840913  F       0.00501288      -0.01121470       0.01060109
Ti       0.71843248       7.21130839      22.88619258  F       0.00207206       0.00091689      -0.00413473
Ti       3.05543359       1.12142564      23.08148253  F       0.00244975       0.00073911       0.00624255
Ti       0.78631931       4.39945698      23.75424369  F       0.01101643       0.00513683      -0.01344676
Ti       3.04554720       6.07119453      24.14556239  F       0.00197523      -0.00835273       0.00724216
Ti       0.73273817       1.74633504      24.63074997  F      -0.00796964      -0.00114296       0.00285521
V        3.06667976       3.31107181      25.07423629  F      -0.01391057      -0.00520048       0.00729321
Ti       0.73343669       6.70070411      25.65624795  F      -0.01638795      -0.00304030       0.00726227
Ti       3.07439142       0.61201025      25.96654472  F       0.01137662      -0.00346041      -0.02230644
Ti       0.73900622       3.87487343      26.57121297  F      -0.00434216       0.04453420       0.04156093
Ti       3.05991808       5.55926147      26.90868122  F      -0.02715364      -0.00204209      -0.00650022
Ti       0.74795659       1.13252979      27.56662530  F       0.09053324       0.02404948      -0.00312229
Ti       3.06498468       2.77821261      27.93491801  F      -0.01197832      -0.00812065       0.00717417
Ti       0.71740798       6.10317820      28.45552703  F       0.02765440      -0.05757917       0.07985700
Ti       3.09630166       0.01328768      28.87623363  F       0.00358476       0.00825902       0.23775434
Ti       0.72453288       3.34751579      29.53598366  F      -0.02285824       0.00293347       0.28441969
Ti       3.04867657       5.01469979      29.71235207  F       0.06664129       0.25887642       0.45319391
Ti       0.83941614       0.62591180      30.46383666  F      -0.18188512       0.14096854       0.06303567
Ti       2.95319820       2.27518463      30.91713263  F       0.37547302       0.12247703      -0.20577204
Ti       0.77718732       5.60409767      31.18150055  F      -0.09055998      -0.22621830       0.28515018
Ti       3.59044868       7.39548649      31.83640733  F      -1.27802861      -0.13661608      -0.17107958
Ti       0.37543587       2.79777114      32.54738095  F       0.32282581      -0.14017659      -1.28451950
Ti       2.70590349       4.56695943      32.54536977  F       0.72049052       0.05795835      -0.29245615
