64
Lattice="5.871999 0.0 0.0 0.0 6.890708 0.0 0.0 0.0 43.401158" Properties=species:S:1:pos:R:3:move_mask:L:1:forces:R:3 job_name=BondOrder-VacuumGB-T1m-Al-Al-49-d-6.60 top_level=BondOrder-VacuumGB solute=Al energy=-482.03281521 stress_kbar_3x3="_JSON [[-18.23005901, -4.68e-06, -0.00052597], [-4.69e-06, -25.66281605, 0.14086776], [-0.00052599, 0.14086776, -17.98574186]]" pbc="T T T"
Ti       2.93600537       0.11881648      34.53773011  F       0.00007373      -0.30847772      -0.19158006
Ti       2.93604060       2.95160032      34.53135014  F      -0.00005989       0.16692443      -0.95832179
Ti       0.00005285       0.10750194      34.53950956  F      -0.00002760      -0.27308947      -0.19590854
Ti       0.00004110       2.94506104      34.52813846  F       0.00003950       0.12136489      -0.99656637
Ti       4.39966571       5.03448219       8.54764106  F       0.01522021      -0.01540786       0.92357097
Ti       1.47238613       5.03444773       8.54764106  F      -0.01525043      -0.01536010       0.92373689
Ti       4.40875557       1.32314686       9.16202785  F      -0.02309811      -0.26768411       0.16385005
Ti       1.46326105       1.32315375       9.16207126  F       0.02314434      -0.26801431       0.16379918
Ti       2.93602299       3.41584110      10.34483961  F      -0.00018311       0.12703204      -0.25913039
Ti       0.00000000       3.41526917      10.34262615  F       0.00024852       0.13730599      -0.25977854
Ti       2.93601712       6.23165312      10.75784503  F      -0.00012962       0.14945518      -0.56734006
Ti       0.00003523       6.23066775      10.75623919  F       0.00012734       0.14016825      -0.56734718
Ti       1.46832271       1.49515960      11.97568153  F      -0.00198715      -0.02742961      -0.01366580
Ti       4.40372327       1.49515960      11.97568153  F       0.00196650      -0.02749117      -0.01396948
Ti       1.46867503       4.44157122      12.57978225  F      -0.00142803      -0.00312199       0.06374918
Ti       4.40336507       4.44157811      12.57978225  F       0.00139273      -0.00303170       0.06375030
Ti       2.93601124       6.59755661      13.74319369  F      -0.00024928       0.04350606      -0.10740033
Ti       0.00000587       6.59567545      13.74332389  F       0.00017096       0.04688651      -0.11073582
Ti       2.93602299       2.52165459      14.24686413  F      -0.00025444       0.01627135       0.04223105
Ti       0.00001174       2.52112401      14.24478087  F       0.00016659       0.02073053       0.03942119
Ti       4.40357059       4.67737125      15.40866972  F      -0.00184215      -0.02271663      -0.01260604
Ti       1.46845189       4.67738503      15.40866972  F       0.00178774      -0.02281393      -0.01269863
Ti       4.40313019       0.73569333      16.01246663  F      -0.00069595      -0.00172516      -0.02221290
Ti       1.46885706       0.73569333      16.01251003  F       0.00070795      -0.00166931      -0.02268068
Ti       5.87197551       2.89086562      17.22791606  F       0.00005581      -0.01057652      -0.00226440
Ti       2.93597014       2.89144444      17.23216938  F       0.00006662      -0.01085567      -0.00271441
Ti       5.87198726       5.70822805      17.64404637  F      -0.00003473       0.02750232       0.02522791
Ti       2.93599950       5.71124618      17.64790907  F       0.00004995       0.02084897       0.02190350
Ti       1.46352529       0.91619543      18.82711853  F       0.00137900       0.00107318      -0.01044576
Ti       4.40843261       0.91620921      18.82716193  F      -0.00138752       0.00101758      -0.01077204
Ti       1.46509898       4.09263955      19.44415280  F      -0.00065399      -0.01045790      -0.00521647
Ti       4.40686479       4.09261887      19.44415280  F       0.00069348      -0.01033707      -0.00527081
Ti       2.93595252       2.12723736      20.86085340  F       0.00010303       0.03602898       0.00342214
Ti       0.00001762       2.13396269      20.87231130  F      -0.00000109       0.02871579       0.00154256
Ti       2.93598188       6.18540958      20.85633967  F       0.00010477      -0.00161065       0.00170100
Ti       5.87198138       6.18776620      20.83607133  F       0.00000516      -0.00392492       0.00572736
Ti       4.39388767       4.10566988      22.27087022  F      -0.00263530      -0.00294125      -0.00212763
Ti       1.47811133       4.10567677      22.27087022  F       0.00268903      -0.00302318      -0.00206506
Ti       4.39704680       0.91044169      22.88760067  F      -0.00090772      -0.01085693       0.00672194
Ti       1.47496394       0.91042101      22.88764407  F       0.00088160      -0.01079325       0.00670239
Ti       2.93602886       5.70244675      24.10552397  F       0.00001260      -0.01153075       0.01704604
Ti       0.00002349       5.71922562      24.08182693  F      -0.00007924      -0.00997917       0.03256046
Ti       2.93599950       2.88743405      24.48059677  F       0.00001083      -0.00238949       0.00074664
Ti       0.00001174       2.89012142      24.41471382  F      -0.00001233      -0.00216260       0.00823592
Ti       4.41551424       0.73478376      25.71679196  F      -0.00752591       0.00021629       0.00213558
Ti       1.45653174       0.73477687      25.71683536  F       0.00764617       0.00014547       0.00191976
Ti       4.38399922       4.64811330      26.28165803  F       0.01614644       0.02220987      -0.01311918
Ti       1.48803501       4.64811330      26.28165803  F      -0.01604077       0.02221045      -0.01320789
Ti       0.00002936       2.47350922      27.42050442  F       0.00002666      -0.03284910      -0.00336612
Al       2.93602299       2.51444002      27.42527854  F      -0.00002633      -0.00781798       0.00835670
Ti       0.00004110       6.51339350      27.95429526  F      -0.00002410       0.01162167      -0.03755819
Ti       2.93606996       6.61747765      27.94878331  F      -0.00015297      -0.01619537      -0.02770097
Ti       1.50390702       4.39962748      29.09930461  F      -0.00775755      -0.01188710      -0.02358885
Ti       4.36815657       4.39962059      29.09934801  F       0.00788303      -0.01183318      -0.02394743
Ti       1.47623816       1.47992425      29.66955242  F      -0.00699231      -0.00461398       0.01855222
Ti       4.39582543       1.47993803      29.66959582  F       0.00687814      -0.00443962       0.01845147
Ti       2.93606409       6.24570328      30.88803993  F      -0.00024028       0.02796583       0.02694996
Ti       0.00003523       6.23050238      30.92189284  F       0.00012316      -0.00037141       0.01453009
Ti       2.93605822       3.41907973      31.37434991  F      -0.00015136      -0.00756177      -0.03481851
Ti       0.00002349       3.40216304      31.32752006  F       0.00003384       0.00469838      -0.06329125
Ti       4.41747549       1.31562910      32.49613964  F      -0.01408523      -0.08766232       0.70055897
Ti       1.45458810       1.31564288      32.49609624  F       0.01406621      -0.08771025       0.70051566
Ti       4.39431632       5.04032551      33.12020489  F       0.00438171       0.22925776       0.29292943
Ti       1.47775314       5.04031173      33.12020489  F      -0.00436889       0.22925671       0.29287110
