52
Lattice="4.6568 0.0 0.0 0.0 7.770572 0.0 0.0 0.0 41.044546" Properties=species:S:1:pos:R:3:move_mask:L:1:forces:R:3 job_name=BondOrder-VacuumGB-CSL7-V-V-38-d-6.58 top_level=BondOrder-VacuumGB solute=V energy=-392.10298564 stress_kbar_3x3="_JSON [[-24.32416187, -0.16278132, -1.17215588], [-0.16278136, -27.57904739, -0.35872609], [-1.17215587, -0.35872611, -20.59112593]]" pbc="T T T"
Ti       1.81708802       7.39384690       8.21079725  F       1.05781365      -0.12382702       0.85474154
Ti       4.62639575       5.59826197       8.86919281  F      -0.09570523      -0.07800281       0.01230593
Ti       2.45679729       2.27553430       9.11566531  F      -0.59118775       0.29859675       0.68533372
Ti       4.56665832       0.62369719       9.58792386  F      -0.29841904      -0.37585719       0.22824110
Ti       2.35316952       5.01074457      10.33124058  F      -0.05810802       0.01052048      -0.39251491
Ti       0.02214308       3.33716539      10.52016863  F       0.00513155       0.27733911       0.07449538
Ti       2.31076470       0.01278259      11.15943743  F      -0.04427954       0.17450576      -0.47798711
Ti       0.02867657       6.10341132      11.59820363  F      -0.01543250      -0.02040162      -0.23320109
Ti       2.33774154       2.76609829      12.11076792  F       0.02482027      -0.07964122      -0.20381500
Ti       0.00338084       1.11669336      12.50557541  F      -0.04160507      -0.08042430       0.10657130
Ti       2.34384661       5.56881928      13.12863162  F       0.04107848       0.03784577      -0.04846565
Ti       0.00666388       3.87358352      13.46281631  F       0.00100709       0.00603337      -0.02831245
Ti       2.33507319       0.56732169      14.09342472  F      -0.00315568      -0.00858527      -0.00740614
Ti       0.01595420       6.64163222      14.42719896  F       0.02658239       0.02116541      -0.03776924
Ti       2.33192054       3.32393988      15.05124024  F       0.02390532      -0.02353848      -0.02646207
Ti       0.01103662       1.67453495      15.44383132  F       0.00252656      -0.04722205      -0.01534183
Ti       2.35650844       6.10677598      15.95697024  F      -0.00190985      -0.00221031      -0.01858182
Ti       4.63885735       4.42836351      16.39865060  F      -0.01660639       0.01282526      -0.00081107
Ti       2.35054308       1.10454019      17.03525151  F      -0.00016640       0.01661674      -0.02204356
Ti       0.02825746       7.19948935      17.22298926  F       0.00946550       0.00251274       0.01761881
Ti       2.23906861       3.81848239      17.97681339  F      -0.00353101       0.00953290       0.01901335
Ti       0.12836004       2.16436073      18.43470635  F       0.00073418       0.00353154       0.00255226
Ti       2.30310892       6.61253143      18.69008551  F      -0.00363227      -0.01286075       0.02480427
Ti       4.15212396       4.81730395      19.34815272  F      -0.00471800      -0.01425739      -0.00268061
Ti       2.70210820       1.64616460      20.05744352  F       0.00194339      -0.00298858       0.00111170
Ti       0.37245086       7.64530261      20.05588382  F       0.00011963       0.00865281      -0.00504725
Ti       1.26358077       4.82715703      20.78733868  F       0.00369815      -0.01284107       0.00483725
Ti       3.11218135       6.62246222      21.42443212  F      -0.00661831      -0.00816014      -0.01529595
Ti       0.62096100       2.17073260      21.67788219  F       0.00513182      -0.00406081      -0.00030882
Ti       3.17410748       3.81683503      22.15235714  F       0.00605895      -0.00315799       0.00527855
Ti       0.72562723       7.21269155      22.89752088  F       0.00149415       0.00361866      -0.00521201
Ti       3.05919628       1.11874479      23.07643405  F       0.00256817      -0.00492306      -0.00438250
Ti       0.77330355       4.41485048      23.74283330  F       0.01557834       0.00287854      -0.01311210
Ti       3.04547735       6.09974361      24.11880134  F       0.00534465      -0.00101344       0.01229187
Ti       0.74483653       1.68355659      24.68480563  F      -0.00664039      -0.01138155       0.01087963
Ti       3.08073864       3.32311620      25.10473238  F      -0.01488889      -0.02939616      -0.00805450
Ti       0.73241219       6.61034789      25.66852027  F      -0.01425631      -0.00843113       0.00569913
Ti       3.07242159       0.51986681      25.98895504  F       0.01522215      -0.00653250      -0.02417288
V        0.75187761       3.87914725      26.63163054  F      -0.01642101       0.03847478       0.04128336
Ti       3.06833758       5.49710467      26.92624829  F      -0.02573923       0.01724058       0.00118853
Ti       0.75014994       1.15884871      27.54651347  F       0.08203044       0.04191017      -0.01806606
Ti       3.07283605       2.78744405      27.91283604  F      -0.02425887      -0.02663196       0.03048490
Ti       0.72367603       6.09094732      28.43282940  F       0.03421843      -0.07019439       0.07176234
Ti       3.10653731       0.01660571      28.88891639  F      -0.00069205      -0.01087443       0.25618454
Ti       0.71828812       3.35029766      29.51353229  F      -0.00742521      -0.00245212       0.27071715
Ti       3.05108414       5.02003817      29.72897511  F       0.06089502       0.23738210       0.48404082
Ti       0.84149773       0.62503373      30.45497104  F      -0.17833163       0.13554168       0.08546911
Ti       2.94376352       2.27457852      30.91889755  F       0.36650249       0.15339366      -0.19164603
Ti       0.78366027       5.61008101      31.16770958  F      -0.10481407      -0.21594001       0.25390834
Ti       3.59172930       7.40129888      31.83813120  F      -1.26524135      -0.13079523      -0.16847158
Ti       0.37038790       2.80084051      32.53831011  F       0.32195695      -0.13237830      -1.30520063
Ti       2.70351455       4.56691281      32.54101905  F       0.72795635       0.03886246      -0.28645200
