64
Lattice="5.871999 0.0 0.0 0.0 6.890708 0.0 0.0 0.0 43.401158" Properties=species:S:1:pos:R:3:move_mask:L:1:forces:R:3 job_name=BondOrder-VacuumGB-T1m-V-V-47-d-5.43 top_level=BondOrder-VacuumGB solute=V energy=-485.81322534 stress_kbar_3x3="_JSON [[-19.05615027, 0.0010311, 0.00042092], [0.00103109, -27.82891296, -1.40962084], [0.0004209, -1.40962087, -18.56395063]]" pbc="T T T"
Ti       2.94802535       0.08658175      34.52384174  F      -0.01560067      -0.29966534      -0.20624145
Ti       2.93807232       2.92591865      34.52184529  F       0.01397833       0.13336533      -0.98328659
Ti       5.86007297       0.08647839      34.52392854  F       0.01561867      -0.29914694      -0.20638522
Ti       5.86992618       2.92583596      34.52184529  F      -0.01385516       0.13335644      -0.98351290
Ti       4.40394053       5.01624248       8.53344888  F       0.00010498      -0.00817064       0.98273893
Ti       1.46809370       5.01837860       8.53987226  F      -0.00012641      -0.01122202       0.94581439
Ti       4.40402274       1.31419583       9.16124663  F      -0.00031973      -0.26195546       0.16681981
Ti       1.46799975       1.31250761       9.15204559  F       0.00031532      -0.24200062       0.20166603
Ti       2.93524201       3.40650419      10.34462261  F       0.00254794       0.14265478      -0.26632775
Ti       0.00078685       3.40646973      10.34466601  F      -0.00251617       0.14289682      -0.26640415
Ti       2.93666304       6.22406645      10.75003283  F      -0.00067542       0.14719345      -0.55245545
Ti       5.87134134       6.22412158      10.75003283  F       0.00075080       0.14678519      -0.55270531
Ti       1.46805847       1.49214147      11.97212263  F       0.00006504      -0.03537498      -0.01682587
Ti       4.40396989       1.49142484      11.97741757  F      -0.00007097      -0.03374856      -0.01915381
Ti       1.46805260       4.44279776      12.58177870  F      -0.00008929       0.00114223       0.04408982
Ti       4.40396989       4.44331457      12.58269012  F       0.00009244       0.00245528       0.04361723
Ti       2.93435534       6.60280733      13.74588456  F       0.00113396       0.05205893      -0.11804829
Ti       0.00164416       6.60282800      13.74592796  F      -0.00113646       0.05203112      -0.11795107
Ti       2.93504236       2.52967538      14.24742834  F      -0.00395958       0.01512939       0.03993839
Ti       0.00099824       2.52969605      14.24742834  F       0.00381244       0.01502585       0.04004144
Ti       4.40400512       4.69300626      15.41179461  F       0.00013222      -0.02375722      -0.00432214
Ti       1.46797626       4.69497011      15.41209842  F      -0.00001587      -0.02678237       0.00260253
Ti       4.40399925       0.74904752      16.01220623  F       0.00016323       0.00510639      -0.02620961
Ti       1.46799975       0.74507847      16.02275271  F      -0.00014036       0.00802391      -0.02583573
Ti       5.87108884       2.91262647      17.22887089  F       0.00043547      -0.00720796      -0.00300215
Ti       2.93688030       2.91259202      17.22882749  F      -0.00041046      -0.00707493      -0.00252019
Ti       0.00306518       5.73315174      17.65993119  F       0.00137691       0.02361307       0.03244510
Ti       2.93294606       5.73315864      17.65988779  F      -0.00135962       0.02372977       0.03269666
Ti       1.46797039       0.95767060      18.84764728  F       0.00012732      -0.00508910       0.00243179
Ti       4.40404035       0.95561028      18.82868097  F      -0.00021154       0.00070697       0.01225943
Ti       1.46795865       4.09184022      19.44931753  F       0.00024822       0.00223769      -0.01632988
Ti       4.40403448       4.09731834      19.46572317  F      -0.00016478      -0.00302648       0.00146560
Ti       2.96961082       2.15555817      20.91519164  F      -0.00122644       0.02023246      -0.00887027
Ti       5.83839942       2.15551682      20.91514824  F       0.00119382       0.02049553      -0.00861403
Ti       2.94283451       6.21025748      20.83207843  F      -0.00127124      -0.00236723      -0.01367552
Ti       5.86511702       6.21021613      20.83203503  F       0.00128500      -0.00206812      -0.01351375
Ti       4.40399338       4.16785852      22.30845562  F      -0.00009887       0.00757407      -0.00081932
Ti       1.46797626       4.14265920      22.27312708  F       0.00013272       0.00836544       0.00940808
Ti       4.40404035       0.85077504      22.90969186  F      -0.00011727      -0.01454375       0.00379106
Ti       1.46795865       0.87912342      22.87987527  F       0.00021612      -0.02095522       0.01426694
Ti       2.88447271       5.69745788      24.17236175  F       0.00304427      -0.00238312       0.01959349
Ti       0.05159726       5.69749233      24.17240515  F      -0.00311471      -0.00275089       0.01949638
Ti       2.91119618       2.89661936      24.45811497  F      -0.00229892      -0.01766549      -0.00217040
Ti       0.02474460       2.89661247      24.45811497  F       0.00239840      -0.01748587      -0.00225558
Ti       4.40402861       0.78720137      25.70082033  F      -0.00005456       0.01332048      -0.01003164
Ti       1.46801149       0.71933479      25.67742711  F       0.00001664       0.01573516      -0.02375673
Ti       4.40398751       4.64290392      26.29923550  F      -0.00001991       0.00293218      -0.02393645
V        1.46807609       4.61910342      26.29137989  F       0.00003746       0.01235486      -0.02190306
Ti       0.03163246       2.52849017      27.43009607  F       0.00453966      -0.03358575       0.02321900
Ti       2.90444338       2.52845572      27.43013947  F      -0.00459339      -0.03363745       0.02298904
Ti       0.00971816       6.54405026      27.88624224  F       0.00785141       0.00623053      -0.00240530
Ti       2.92632832       6.54406404      27.88628564  F      -0.00778783       0.00621293      -0.00252642
Ti       1.46806434       4.41100404      29.06076438  F      -0.00017152      -0.03953394      -0.01988565
Ti       4.40402861       4.43532824      29.10186528  F       0.00006291      -0.03149556      -0.00529058
Ti       1.46801737       1.46156051      29.68031591  F      -0.00001531       0.00236107      -0.02442497
Ti       4.40402861       1.45030109      29.65943995  F       0.00009739      -0.01157513      -0.01634430
Ti       2.93209462       6.21149780      30.89980165  F       0.00823127       0.01413830       0.03408307
Ti       0.00397534       6.21147713      30.89975825  F      -0.00819254       0.01416289       0.03398275
Ti       2.92676285       3.38475022      31.30989919  F      -0.01380010       0.02527092      -0.05692106
Ti       0.00934235       3.38477779      31.30985579  F       0.01360394       0.02511561      -0.05656003
Ti       4.40415779       1.30441102      32.47925659  F      -0.00030876      -0.08478969       0.69972620
Ti       1.46799388       1.29703108      32.50043635  F       0.00007407      -0.06895724       0.69853072
Ti       4.40399338       5.00946892      33.09906853  F       0.00015758       0.19918868       0.26316488
Ti       1.46805847       5.01216319      33.11243608  F      -0.00012206       0.20681336       0.29054388
