64
Lattice="5.872 0.0 0.0 0.0 6.890708 0.0 0.0 0.0 43.394398" Properties=species:S:1:pos:R:3:move_mask:L:1:forces:R:3 job_name=BondOrder-VacuumGB-T1g-Al-Al-37-d-1.90 top_level=BondOrder-VacuumGB solute=Al energy=-480.53029397 stress_kbar_3x3="_JSON [[-17.16264615, 0.00036858, -0.00051961], [0.00036861, -24.89800033, 0.06223665], [-0.00051966, 0.06223668, -19.19110699]]" pbc="T T T"
Ti       4.40873283       5.21201439       8.11956920  F       0.00637648      -0.13089964       1.17705110
Ti       1.46326130       5.21200750       8.11956920  F      -0.00640959      -0.13089398       1.17687101
Ti       5.87199413       3.18026846       9.40091899  F      -0.00034772       0.17486573      -0.32506716
Ti       2.93598826       3.18332105       9.40156990  F       0.00038020       0.17226234      -0.32928143
Ti       5.87199413       6.64497157      10.01655531  F      -0.00033137      -0.35285049      -0.63058700
Ti       2.93599413       6.64403444      10.01477614  F       0.00034385      -0.35913191      -0.62559074
Ti       4.40148678       1.77563209      11.31378745  F      -0.00118574       0.22063537       0.29787147
Ti       1.47050734       1.77562520      11.31378745  F       0.00115228       0.22069645       0.29793930
Ti       1.46818203       4.60396453      11.51444314  F       0.00235748       0.20694439      -0.32376690
Ti       4.40379448       4.60395764      11.51444314  F      -0.00223246       0.20704159      -0.32386684
Ti       5.87198238       6.73254558      12.83168009  F       0.00001830      -0.03638022       0.02937643
Ti       2.93599413       6.73104340      12.82998771  F       0.00000415      -0.04007582       0.04121061
Ti       2.93600000       2.89445568      13.44015634  F      -0.00001547      -0.08101245      -0.03073184
Ti       5.87199413       2.89364257      13.43837717  F       0.00001567      -0.07527847      -0.03333873
Ti       4.40631357       5.02566208      14.60069612  F      -0.00042277      -0.00241158      -0.01914421
Ti       1.46568056       5.02568275      14.60069612  F       0.00042262      -0.00257471      -0.01907909
Ti       4.40527422       0.94958780      15.06879149  F      -0.00266610       0.02687867       0.03933337
Ti       1.46670816       0.94956713      15.06874810  F       0.00269556       0.02714402       0.03967636
Ti       2.93600587       3.11702555      16.25923001  F      -0.00015822       0.00631854      -0.00716515
Ti       5.87198826       3.11890671      16.25975075  F       0.00012471       0.00781170      -0.00870142
Ti       2.93600587       6.04002253      16.84344879  F       0.00008767       0.01217054      -0.00539915
Ti       0.00000587       6.03953329      16.86614407  F      -0.00005133       0.00134369      -0.02044885
Ti       4.40400587       1.32708145      18.03219493  F      -0.00328610      -0.00215104      -0.00240674
Ti       1.46802349       1.32705389      18.03223833  F       0.00330990      -0.00183891      -0.00280386
Ti       4.40867998       4.12495008      18.52814951  F      -0.00558764       0.00905513       0.00349451
Ti       1.46334938       4.12501209      18.52814951  F       0.00561904       0.00844079       0.00345661
Ti       2.93599413       6.29603990      19.62928236  F       0.00026065       0.00653698      -0.01184414
Ti       0.00004110       6.28380889      19.66890144  F      -0.00035022       0.00387002      -0.00654195
Ti       2.93600587       2.40341004      20.29386756  F       0.00025824      -0.00250962      -0.01492011
Ti       0.00006459       2.40405088      20.28853005  F      -0.00039260      -0.01179877       0.00634160
Ti       1.47101821       4.54247186      21.58632631  F      -0.00505473      -0.00927477      -0.00039356
Ti       4.40099941       4.54254076      21.58632631  F       0.00514675      -0.01009119      -0.00045899
Ti       4.37339514       0.43804231      21.80854903  F       0.00833855       0.00678059       0.01897264
Ti       1.49861074       0.43811121      21.80846224  F      -0.00802432       0.00586567       0.01978430
Ti       0.00004698       2.46923009      23.09679852  F      -0.00015039      -0.00418296      -0.02597005
Ti       2.93600587       2.46849967      23.11302802  F       0.00006595       0.01022387       0.00811103
Ti       0.00000000       5.91887700      23.77652837  F       0.00013350      -0.00954811      -0.02445301
Al       2.93604110       5.92473410      23.71299897  F      -0.00045612       0.00556844      -0.02500404
Ti       4.43070586       3.90595649      25.01504788  F      -0.00707275      -0.01133004       0.02229425
Ti       1.44132938       3.90588758      25.01504788  F       0.00719886      -0.01062981       0.02215308
Ti       4.42112862       1.02417282      25.23701023  F      -0.00227349       0.00256575       0.00321412
Ti       1.45093010       1.02421416      25.23701023  F       0.00224176       0.00214213       0.00319915
Ti       0.00001762       5.80402268      26.61682190  F       0.00002180      -0.02080886       0.05594701
Ti       2.93604698       5.79895801      26.52295982  F      -0.00004976      -0.03236469       0.04401610
Ti       2.93601762       2.81076114      27.09719789  F       0.00004806       0.01432175      -0.02974536
Ti       0.00005285       2.75348557      27.13981119  F      -0.00018549       0.01589432      -0.00546015
Ti       4.37409978       0.65133728      28.30764122  F       0.00285585       0.01886318      -0.03203901
Ti       1.49794133       0.65138552      28.30764122  F      -0.00289857       0.01846785      -0.03208792
Ti       1.48438875       4.70159898      28.78576070  F      -0.00149428       0.04506417      -0.01320852
Ti       4.38766997       4.70163343      28.78580410  F       0.00148867       0.04467119      -0.01343938
Ti       2.93600000       2.55638376      29.95246249  F       0.00019928      -0.12104162       0.05210372
Ti       0.00004110       2.56000138      29.97724069  F      -0.00020399      -0.11145463       0.02890882
Ti       2.93600587       6.53101993      30.56124250  F       0.00004042       0.10376329       0.10500257
Ti       0.00001762       6.52094572      30.54002264  F      -0.00000148       0.10674997       0.08938163
Ti       4.40313094       4.36786131      31.73731747  F       0.00165406       0.02098873       0.18429337
Ti       1.46889254       4.36785442      31.73731747  F      -0.00163648       0.02107607       0.18420561
Ti       4.40186259       1.54885200      32.22224987  F      -0.00637593      -0.24594778       0.38383511
Ti       1.47016677       1.54885889      32.22224987  F       0.00637104      -0.24605190       0.38368508
Ti       2.93600587       6.31257071      33.38066332  F       0.00012153       0.22235529       0.31306271
Ti       0.00000587       6.31183340      33.36586583  F      -0.00008041       0.19161959       0.30518145
Ti       0.00001174       3.27614577      33.97607786  F      -0.00029508      -0.17928555       0.18940444
Ti       2.93600000       3.27534645      33.98124179  F       0.00033198      -0.19480713       0.20230395
Ti       1.46615032       1.14869481      35.28576418  F       0.00614889       0.13376285      -1.39439323
Ti       4.40584968       1.14867413      35.28576418  F      -0.00614317       0.13386602      -1.39434393
