64
Lattice="5.871999 0.0 0.0 0.0 6.890708 0.0 0.0 0.0 43.401158" Properties=species:S:1:pos:R:3:move_mask:L:1:forces:R:3 job_name=BondOrder-VacuumGB-T1m-Al-Al-47-d-5.43 top_level=BondOrder-VacuumGB solute=Al energy=-482.04601619 stress_kbar_3x3="_JSON [[-18.42958716, 0.00017307, -0.00048364], [0.0001731, -26.79703519, 0.44385139], [-0.00048362, 0.44385138, -16.59198058]]" pbc="T T T"
Ti       2.94278166       0.10078350      34.54159282  F      -0.00665995      -0.30764816      -0.19503837
Ti       2.93580572       2.93644076      34.53959636  F       0.02092830       0.13243719      -0.98330315
Ti       5.86531667       0.10089375      34.54141921  F       0.00661103      -0.30787539      -0.19600067
Ti       0.00025250       2.93675773      34.53959636  F      -0.02098766       0.13065197      -0.98305875
Ti       4.40387594       5.02554494       8.54512380  F       0.00036477      -0.01562612       0.97216762
Ti       1.46814068       5.02945886       8.55979339  F      -0.00009511      -0.01157655       0.90316539
Ti       4.40396402       1.31897109       9.16970986  F       0.00010002      -0.26015663       0.14808587
Ti       1.46810545       1.32096251       9.17170631  F      -0.00003072      -0.26264152       0.15535370
Ti       2.93682745       3.41167222      10.34878912  F       0.00928952       0.13265370      -0.24385920
Ti       5.87124738       3.41163777      10.34891932  F      -0.00938676       0.13287623      -0.24476484
Ti       2.93686856       6.23081935      10.76205495  F       0.00184270       0.13563829      -0.56308450
Ti       5.87119454       6.23087447      10.76183794  F      -0.00188069       0.13559253      -0.56265285
Ti       1.46805847       1.49247912      11.98223510  F       0.00006350      -0.03074272      -0.02597569
Ti       4.40399925       1.49067375      11.97863281  F      -0.00007604      -0.02205616      -0.02134971
Ti       1.46798801       4.44149542      12.58303733  F       0.00037917      -0.00567707       0.04293470
Ti       4.40406384       4.43991056      12.57982565  F      -0.00041849      -0.00098946       0.04971957
Ti       2.93596427       6.59440067      13.74280308  F      -0.00186405       0.04614538      -0.11562149
Ti       0.00004110       6.59445579      13.74280308  F       0.00199386       0.04630448      -0.11579076
Ti       2.93554736       2.52006284      14.24525828  F      -0.00010494       0.01132152       0.03661126
Ti       0.00048738       2.52006284      14.24521488  F       0.00016225       0.01107688       0.03709242
Ti       4.40404623       4.67414639      15.39994609  F      -0.00006069      -0.03110884      -0.00026126
Ti       1.46795277       4.67329884      15.40641286  F       0.00008661      -0.02835098       0.00011904
Ti       4.40398751       0.73368124      16.00456762  F       0.00019325      -0.00014448      -0.03130377
Ti       1.46804673       0.73279923      16.01086079  F      -0.00021752      -0.00207424      -0.01946001
Ti       5.86959735       2.88686901      17.23212598  F      -0.00161324      -0.01331563      -0.00598457
Ti       2.93838353       2.88682766      17.23195237  F       0.00170536      -0.01301992      -0.00505735
Ti       0.00046976       5.70148894      17.63506233  F       0.00235896       0.01374924       0.02925435
Ti       2.93552974       5.70137180      17.63506233  F      -0.00245282       0.01434893       0.02931236
Ti       1.46807609       0.90002983      18.82078196  F      -0.00014626      -0.00725172       0.00836539
Ti       4.40385245       0.90155956      18.80715400  F       0.00032109      -0.01202987      -0.00360143
Ti       1.46805847       4.08681690      19.42006515  F      -0.00022750      -0.00483233       0.00598513
Ti       4.40390530       4.09329416      19.44892692  F       0.00029291       0.00359545      -0.01370635
Ti       2.96180694       2.11575744      20.83828479  F       0.00747040       0.01757528      -0.00000513
Ti       5.84620918       2.11578500      20.83824139  F      -0.00773499       0.01721670       0.00025970
Ti       2.94507761       6.18176440      20.86063639  F       0.00640852       0.00008429       0.00639768
Ti       5.86281519       6.18165415      20.86059299  F      -0.00630608       0.00056818       0.00665106
Ti       4.40389355       4.07642571      22.27030600  F       0.00032042      -0.00158513      -0.00005545
Ti       1.46809957       4.07919578      22.22022106  F      -0.00033600      -0.00707086       0.00019421
Ti       4.40394053       0.89810732      22.90053422  F       0.00014312      -0.00537767      -0.00906126
Ti       1.46809370       0.89456549      22.87340849  F      -0.00028122      -0.00555307       0.01268984
Ti       2.89980450       5.69086347      24.05582964  F       0.01075768       0.02318356      -0.00486370
Ti       0.03619500       5.69092549      24.05591644  F      -0.01058246       0.02315713      -0.00516745
Ti       2.90734414       2.91647149      24.48207241  F       0.00615577      -0.01406304      -0.00155483
Ti       0.02868472       2.91654040      24.48194221  F      -0.00616936      -0.01447200      -0.00070709
Ti       4.40398751       0.79846768      25.69161929  F       0.00025657      -0.00535675       0.02803059
Ti       1.46803498       0.66414711      25.66883368  F      -0.00016721       0.02079080      -0.03600453
Ti       4.40406971       4.71595921      26.32805387  F      -0.00020250       0.01040430      -0.02137084
Al       1.46806434       4.71022614      26.27974838  F      -0.00029615       0.02701972      -0.00040639
Ti       0.02796833       2.54629576      27.43912351  F      -0.00920451      -0.01161508       0.00797428
Ti       2.90808402       2.54629576      27.43908011  F       0.00918737      -0.01122697       0.00802893
Ti       5.86713698       6.57911018      27.93459113  F      -0.00699639      -0.00891944      -0.02275866
Ti       2.94087913       6.57911018      27.93454773  F       0.00721871      -0.00910827      -0.02272587
Ti       1.46803498       4.42288362      29.08485202  F      -0.00018409       0.00509858      -0.02239362
Ti       4.40401099       4.44278398      29.17538684  F       0.00012337      -0.01613277      -0.00740338
Ti       1.46806434       1.51173865      29.67029024  F      -0.00052071       0.02150239       0.00580672
Ti       4.40397576       1.47465975      29.68313699  F       0.00038615       0.02017728       0.00427675
Ti       2.91720323       6.22928961      30.92137202  F       0.00817370       0.01639947       0.05247860
Ti       0.01882563       6.22933785      30.92176263  F      -0.00801841       0.01650246       0.05097140
Ti       2.91336294       3.39702257      31.33433404  F      -0.02460213      -0.01662313      -0.03647111
Ti       0.02263656       3.39701568      31.33420384  F       0.02492244      -0.01664689      -0.03615480
Ti       4.40384071       1.31866790      32.51185086  F       0.00092422      -0.08477317       0.69980482
Ti       1.46819940       1.30979267      32.51180746  F      -0.00078552      -0.03687475       0.69603717
Ti       4.40389943       5.02322966      33.11395512  F       0.00061830       0.20936220       0.24859518
Ti       1.46824050       5.03095415      33.13769556  F      -0.00114983       0.22708263       0.31061508
