64
Lattice="5.088765 0.0 0.0 0.0 9.739025 0.0 0.0 0.0 38.303587" Properties=species:S:1:pos:R:3:move_mask:L:1:forces:R:3 job_name=BondOrder-VacuumGB-T2-V-V-48-d-5.58 top_level=BondOrder-VacuumGB solute=V energy=-481.64167821 stress_kbar_3x3="_JSON [[-19.1829114, 0.05325644, 0.04817756], [0.05325647, -22.77407754, 0.02243957], [0.04817751, 0.02243955, -22.30667076]]" pbc="T T T"
Ti       2.56080394       9.24648355      30.27917704  F      -0.85070181       0.01062241      -1.06457852
Ti       0.00761279       4.38049658       7.99970414  F       0.85194261       0.04606084       1.01312850
Ti       1.27829268       1.87156791       8.60830984  F      -0.70664447       0.21312262       0.66513225
Ti       3.82157092       6.75340028       8.60884609  F      -0.99610818      -0.62837228       0.70862236
Ti       2.70365067       4.07872315       9.36947872  F      -0.23698416      -0.25822440       0.05665961
Ti       0.16866203       8.95555939       9.36802318  F       0.91783385      -0.41641251       0.69563262
Ti       1.04839754       6.22650929      10.11061482  F       0.10770039       0.08000659      -0.51146492
Ti       3.58969625       1.35904198      10.10977215  F       0.19416494       0.33855516      -0.23300290
Ti       0.23280082       3.50534779      10.75514928  F       0.06465365       0.23309013      -0.51725431
Ti       2.77644545       8.38388837      10.75380866  F      -0.15684684       0.32455353      -0.15179832
Ti       1.10582426       0.87358080      11.49628539  F      -0.04671703       0.02937366      -0.41715418
Ti       3.65077670       5.74358025      11.48797351  F      -0.05007578       0.06580507      -0.13444120
Ti       2.76016649       3.11030372      12.18444763  F       0.05738098      -0.06758910      -0.03555962
Ti       0.21652186       7.97798528      12.18172808  F       0.07502778      -0.03747439      -0.17602816
Ti       3.61289084       0.43821717      12.85456889  F      -0.03645611      -0.04811125      -0.11082531
Ti       1.06685449       5.30859644      12.85334317  F      -0.01728250       0.07323424      -0.06576626
Ti       2.75818696       7.52287091      13.57601695  F      -0.04038639      -0.01305923      -0.03691480
Ti       0.21214044       2.65333893      13.57597864  F       0.01178702      -0.00690622       0.03648487
Ti       3.61329794       4.86951250      14.29746501  F       0.00944304       0.01812950      -0.05490580
Ti       1.06735319       9.73800240      14.29861412  F       0.02686053       0.00750441       0.00000720
Ti       0.21638955       7.06873043      14.97022921  F       0.00761376       0.01007467      -0.03745224
Ti       2.76018176       2.19754282      14.96727983  F       0.01375525       0.00602632      -0.02490030
Ti       1.10584970       4.43431443      15.65521226  F      -0.00120327       0.00263558      -0.01360534
Ti       3.65081232       9.30352502      15.66325601  F      -0.00564051       0.00173446      -0.01873626
Ti       0.23318248       1.80235266      16.39680801  F      -0.01827827       0.00784073      -0.01107102
Ti       2.77658285       6.66316821      16.39856997  F      -0.00510124       0.00793326      -0.00716569
Ti       1.04784796       8.81990452      17.04122755  F      -0.01280070       0.00683946      -0.00835441
Ti       3.58937566       3.94839552      17.04210854  F      -0.00924026       0.00809395       0.00558274
Ti       2.70398144       1.22838322      17.78221044  F       0.00176329       0.00164595       0.00224774
Ti       0.16864676       6.09065963      17.78389580  F      -0.00265066       0.00584484       0.01149474
Ti       3.82179991       8.29277979      18.54345593  F       0.00307473      -0.01137474      -0.00439833
Ti       1.27830795       3.43546055      18.54376236  F       0.00991907      -0.01898685       0.00098481
Ti       0.00759244       0.92656110      19.15217654  F       0.00022465      -0.01573769      -0.00071058
Ti       2.56058004       5.79971599      19.17672914  F       0.00087110      -0.01068087      -0.01127218
Ti       3.82492441       3.43423343      19.78901197  F      -0.00337870      -0.00157473       0.00226508
Ti       1.28434322       8.31391347      19.79831974  F       0.00464234      -0.01037115      -0.00730159
Ti       2.36983786       1.24160882      20.57450363  F      -0.01762707       0.00915418      -0.00352603
Ti       4.92602630       6.13587792      20.58151319  F      -0.01256703       0.01621707      -0.00837012
Ti       1.48660636       3.98052456      21.27917472  F       0.00586030       0.01364258       0.00055134
Ti       4.04484557       8.82471559      21.28097499  F       0.00866467       0.01827992      -0.02037691
Ti       4.86871154       1.79928487      21.92570097  F       0.01020392       0.01029157      -0.00835442
Ti       2.33105129       6.70380916      21.97151206  F       0.03227347       0.01150404       0.00592602
Ti       1.42832474       9.29504233      22.71264816  F       0.00769114       0.00178145      -0.00575303
Ti       3.98673696       4.43913525      22.64013947  F       0.00767193       0.00588025       0.01873986
Ti       4.87050278       7.07928753      23.39054504  F      -0.03146094       0.00102421       0.02033820
Ti       2.31778997       2.22197803      23.34159306  F      -0.00498183       0.00290037       0.03643635
Ti       1.46790006       4.90702722      24.03695638  F      -0.00865326       0.01315025       0.01294152
Ti       3.94819466       9.73397045      24.01489351  F       0.00340075       0.01572514       0.03327124
V        2.39163304       7.52368898      24.72757005  F      -0.03405572       0.02529255      -0.03892066
Ti       4.88027830       2.65346553      24.72749345  F       0.02951609      -0.01918401       0.05424458
Ti       3.94811324       5.31288161      25.44001677  F       0.02672438      -0.02211976       0.14876207
Ti       1.46839876       0.40132574      25.41849015  F       0.02491200       0.06529781       0.05047923
Ti       4.86981071       7.96765218      26.06455676  F      -0.02406949      -0.07972543       0.05671599
Ti       2.31742867       3.08663789      26.11324062  F      -0.06033668      -0.03007457       0.21079122
Ti       1.42822805       5.75279337      26.74276007  F      -0.01245986       0.00855461       0.43114401
Ti       3.98692016       0.86923720      26.81538367  F       0.03867636       0.06974145       0.16939073
Ti       2.33106147       8.34396810      27.48439412  F      -0.03394814       0.22730774       0.46863544
Ti       4.86899142       3.50904862      27.52947744  F       0.17137361       0.30907592       0.15915563
Ti       1.48633666       1.32754598      28.17615690  F      -0.11113374       0.11466587       0.51363767
Ti       4.04428581       6.22183456      28.17443324  F      -0.19716970       0.31664809       0.25482858
Ti       4.92601612       8.91032162      28.87362692  F       0.27567773      -0.25268300      -0.01426667
Ti       2.36979206       4.06568259      28.88033004  F      -0.93368796      -0.36232432      -0.67156816
Ti       3.82523992       1.87254181      29.66612813  F       0.98551408      -0.65194702      -0.72190832
Ti       1.28419056       6.73214973      29.65701188  F       0.69182885       0.20807107      -0.69652563
