52
Lattice="4.6568 0.0 0.0 0.0 7.770572 0.0 0.0 0.0 41.044546" Properties=species:S:1:pos:R:3:move_mask:L:1:forces:R:3 job_name=BondOrder-VacuumGB-CSL7-Al-Al-30-d-2.82 top_level=BondOrder-VacuumGB solute=Al energy=-387.0886048 stress_kbar_3x3="_JSON [[-17.48298071, -1.89353625, 0.287374], [-1.89353629, -22.79785119, 1.31137215], [0.287374, 1.31137215, -28.0909982]]" pbc="T T T"
Ti       1.81604489       7.38714867       8.71125340  F       0.92539992       0.22174516       0.42236340
Ti       4.62538988       5.60365475       9.36431317  F      -0.09581159      -0.32084085       0.10827867
Ti       2.45880903       2.27202978       9.60516257  F      -0.60581084       0.44336432       0.00763558
Ti       4.56612279       0.62718618      10.08263377  F       0.00585885       0.28678890      -0.43389189
Ti       2.35811504       5.00699915      10.82340574  F      -0.21113960       0.12629078      -0.67074981
Ti       0.02264136       3.33855632      11.00876291  F       0.19391958       0.11714359      -0.57781131
Ti       2.30979143       0.01070785      11.64987871  F      -0.03647078       0.02745943      -0.43365727
Ti       0.02774521       6.10669827      12.09008147  F       0.02713621      -0.10803748      -0.30167198
Ti       2.33920843       2.76515028      12.59480625  F       0.04916620      -0.02993703      -0.14119829
Ti       4.65569634       1.11981713      12.99478535  F      -0.05268304      -0.00854048       0.06325980
Ti       2.34220741       5.57030346      13.62059155  F       0.03772553      -0.01288298      -0.06237747
Ti       0.00349260       3.87532413      13.94311959  F      -0.01537096      -0.01358194       0.00946740
Ti       2.33145020       0.56651355      14.57717573  F      -0.01204416       0.00095022       0.03503852
Ti       0.00660800       6.64733582      14.91911785  F       0.00710115      -0.01281858      -0.00482016
Ti       2.32564783       3.32334932      15.52678235  F       0.01636606      -0.00176290      -0.00565338
Ti       0.01052902       1.67793846      15.92384729  F      -0.00488733      -0.00947438       0.00931216
Ti       2.33649352       6.11095654      16.44749361  F      -0.00366855      -0.00461111       0.00171246
Ti       4.62786730       4.43106767      16.86742036  F      -0.01817370       0.01205061      -0.01517311
Ti       2.33168770       1.11108301      17.50545782  F      -0.00039239      -0.01340452      -0.02292394
Ti       0.00813543       7.21360071      17.71133727  F      -0.02353248      -0.00880471       0.00028560
Ti       2.18460733       3.81948480      18.46856810  F       0.00646005       0.02172774      -0.01076047
Ti       0.12719584       2.16745342      18.91853945  F      -0.00524044      -0.00533785      -0.00559630
Ti       2.28732702       6.59530407      19.16653060  F       0.00834558      -0.00290047       0.00124867
Ti       4.19667556       4.85293202      19.76360561  F       0.00873264      -0.00421530      -0.01817526
Ti       2.71829058       1.62014872      20.50261266  F      -0.00503357      -0.01036448       0.00218351
Ti       0.46689077       7.64556681      20.57115705  F      -0.02122786      -0.00658376       0.00400898
Ti       1.15741970       4.83704897      21.33614530  F       0.00780933       0.00369431       0.04703192
Ti       3.08329988       6.56481234      21.87534750  F      -0.00086209      -0.01221928      -0.00584896
Ti       0.65861122       2.11703018      22.16717423  F       0.00615977       0.00032349      -0.00963167
Ti       3.18352353       3.74214429      22.54884746  F       0.00541784       0.02404043       0.00502798
Al       0.73113157       7.15776915      23.31765285  F       0.01807045      -0.00275189      -0.00191315
Ti       3.05114467       1.01350016      23.51622636  F       0.00256117       0.00934763       0.01556164
Ti       0.79840370       4.42392651      24.16107723  F       0.03773409      -0.01316691       0.00154289
Ti       3.05258828       6.15251356      24.59664195  F      -0.01001017      -0.02863927       0.02042708
Ti       0.75745180       1.64293981      25.13822473  F      -0.00125656      -0.01617082       0.03578517
Ti       3.10012490       3.31142926      25.47528254  F      -0.00774506      -0.01760547       0.01806659
Ti       0.73526215       6.69569986      26.10671184  F      -0.00617702      -0.00992182       0.03839218
Ti       3.07122480       0.58069485      26.53620197  F       0.01651905      -0.00051855       0.00858063
Ti       0.75989197       3.88028175      27.07593775  F      -0.02015225       0.01253969       0.06153421
Ti       3.07481984       5.57899873      27.38927181  F      -0.02933223       0.02947223      -0.02411084
Ti       0.74854800       1.14182339      28.08440224  F       0.05633502      -0.02769090      -0.01906829
Ti       3.06612560       2.78746736      28.44813901  F       0.00075393      -0.03723054       0.10772670
Ti       0.73120608       6.12164885      28.92503559  F      -0.01181533      -0.01314361       0.33687486
Ti       3.10964340       0.02196741      29.42339847  F       0.05694778       0.18623790       0.38743200
Ti       0.72101234       3.35262106      30.02896970  F       0.02858694       0.10291993       0.13330452
Ti       3.04951014       5.01950200      30.19975606  F      -0.07326136       0.01242007       0.89776648
Ti       0.84810107       0.63405536      30.98259868  F       0.02090636      -0.41947975      -0.47140364
Ti       2.95548469       2.28543401      31.41988727  F       0.66697424       0.48653776      -0.79180953
Ti       0.77663782       5.61402069      31.66541575  F      -0.10596719      -0.08597218       0.22606396
Ti       3.59176656       7.40389425      32.34531865  F      -1.22771411      -0.92449353      -0.04989648
Ti       0.37401555       2.80980775       8.00155215  F      -0.26473343      -0.60078330       1.77651291
Ti       2.70608045       4.57328467      33.03457971  F       0.65952637       0.65883246      -0.70428327
