64
Lattice="5.872 0.0 0.0 0.0 6.890708 0.0 0.0 0.0 43.394398" Properties=species:S:1:pos:R:3:move_mask:L:1:forces:R:3 job_name=BondOrder-VacuumGB-T1g-V-V-30-d-0.22 top_level=BondOrder-VacuumGB solute=V energy=-485.81961691 stress_kbar_3x3="_JSON [[-18.48669979, -0.00255767, 0.00250275], [-0.00255767, -29.17149043, -2.36424124], [0.00250276, -2.36424129, -18.3357233]]" pbc="T T T"
Ti       4.40399413       5.21079473      34.65146827  F       0.00008063      -0.28252482      -0.46905070
Ti       1.46790018       5.20810047      34.65233616  F       0.00004008      -0.27607314      -0.46472449
Ti       5.86862947       3.18283870       8.55138686  F       0.00961500       0.15788430       0.97333141
Ti       2.93925896       3.18284559       8.55134346  F      -0.00942353       0.15777215       0.97349104
Ti       0.00459190       6.62820648       9.17279464  F      -0.02098905      -0.20545252       0.15271405
Ti       2.93136112       6.62817892       9.17270785  F       0.02093790      -0.20515943       0.15311286
Ti       4.40393541       1.75994884      10.46685898  F      -0.00009687       0.02915353      -0.51847055
Ti       1.46799413       1.76123051      10.46677219  F      -0.00001298       0.03136937      -0.52584967
Ti       1.46799413       4.58648970      10.67580301  F       0.00000322       0.11231504      -0.36022118
Ti       4.40398826       4.58617962      10.67879722  F      -0.00013561       0.12266359      -0.35515665
Ti       0.00068115       6.71352723      11.99529647  F      -0.00226950      -0.09197316       0.01551035
Ti       2.93532472       6.71354790      11.99525307  F       0.00210133      -0.09204636       0.01521051
Ti       2.93895949       2.86841569      12.60767821  F      -0.00282245      -0.05254263       0.09389783
Ti       5.86891133       2.86842947      12.60772161  F       0.00301039      -0.05259019       0.09352091
Ti       4.40397064       4.99845757      13.77468376  F      -0.00002216       0.07043573      -0.08238468
Ti       1.46798826       4.99721724      13.76661240  F       0.00000603       0.06599866      -0.08483253
Ti       4.40391779       0.92398882      14.24408096  F       0.00006854       0.02779176       0.02865928
Ti       1.46794715       0.92590443      14.24260555  F       0.00001698       0.02225522       0.02430091
Ti       2.93039224       3.08760911      15.43078756  F       0.00467847      -0.02050776      -0.03766379
Ti       0.00552555       3.08757466      15.43083096  F      -0.00478106      -0.02040374      -0.03757102
Ti       2.93352789       6.03547467      16.03405648  F       0.00810917       0.00450316      -0.05734019
Ti       0.00237816       6.03550912      16.03409988  F      -0.00809509       0.00443532      -0.05748669
Ti       4.40404698       1.29427479      17.22822692  F      -0.00007792       0.01858082      -0.00237683
Ti       1.46806459       1.29854014      17.21143329  F      -0.00015613       0.01149407       0.00186479
Ti       4.40388256       4.13953771      17.65891632  F      -0.00007773       0.01536915       0.02458598
Ti       1.46785320       4.13841452      17.69614872  F       0.00033789       0.01555597       0.01493839
Ti       2.94314035       6.26082149      18.87973092  F      -0.00833495       0.00384615       0.00288028
Ti       5.86487139       6.26085594      18.87977432  F       0.00823146       0.00368593       0.00287855
Ti       2.89316376       2.45387759      19.43695839  F       0.01648062      -0.00635955      -0.00639796
Ti       0.04288909       2.45393271      19.43687160  F      -0.01657760      -0.00621984      -0.00627790
V        1.46842866       4.55564000      20.70194848  F      -0.00012609      -0.00075261      -0.01154484
Ti       4.40412331       4.59026581      20.69730528  F      -0.00006354      -0.01016365       0.00272718
Ti       4.40390018       0.57092961      21.01755594  F      -0.00011619      -0.01199612      -0.00292374
Ti       1.46800000       0.46658362      21.03074784  F       0.00001718       0.02083379      -0.00518693
Ti       0.06824438       2.63034862      22.20782088  F      -0.01730973      -0.00556904       0.01043789
Ti       2.86807270       2.63047954      22.20795106  F       0.01717175      -0.00602029       0.01014325
Ti       5.86541749       5.83746328      22.80440706  F       0.01304342       0.01324103      -0.00104406
Ti       2.94239461       5.83724967      22.80440706  F      -0.01237624       0.01361755      -0.00139886
Ti       4.40417616       3.87755299      24.18638846  F       0.00010675      -0.00300495      -0.00293047
Ti       1.46792366       3.89374615      24.21103648  F      -0.00012092      -0.01073355      -0.00301013
Ti       4.40413506       1.04272261      24.27504321  F      -0.00004055       0.00194709      -0.00175545
Ti       1.46810570       1.04890357      24.26406443  F      -0.00007855      -0.00083298       0.00640282
Ti       5.85946328       5.84622826      25.65298893  F       0.00148152      -0.01120990      -0.00150222
Ti       2.94875986       5.84615246      25.65294553  F      -0.00156877      -0.01074701      -0.00115861
Ti       2.92816675       2.74143372      26.26788755  F       0.00767156       0.00307861      -0.00292523
Ti       0.00790958       2.74130280      26.26797434  F      -0.00763306       0.00359853      -0.00294417
Ti       4.40398826       0.63322850      27.43263658  F       0.00015934      -0.02145719       0.01993425
Ti       1.46813506       0.63450328      27.42851412  F      -0.00029407      -0.02024329       0.02236936
Ti       1.46808808       4.71502207      27.87907815  F      -0.00004483       0.00140475      -0.01178688
Ti       4.40403523       4.71300310      27.88580428  F       0.00012306       0.00348520      -0.00881689
Ti       2.93488432       2.56529345      29.08049545  F       0.00081823      -0.03221938      -0.01057720
Ti       0.00126835       2.56536235      29.08053885  F      -0.00099496      -0.03239269      -0.01061689
Ti       2.93703347       6.51539181      29.68550015  F      -0.00201371       0.02070391       0.02062287
Ti       5.87100763       6.51536424      29.68545676  F       0.00213652       0.02079045       0.02071803
Ti       4.40397651       4.36281043      30.87441987  F       0.00020085       0.01268017       0.03769099
Ti       1.46800000       4.36299648      30.87159923  F      -0.00016060       0.01221960       0.03485669
Ti       4.40404110       1.55113972      31.34576982  F      -0.00001166       0.01192859      -0.02766616
Ti       1.46804110       1.55210441      31.34633394  F      -0.00013480       0.00804502      -0.02414628
Ti       2.93390957       6.31499624      32.50765482  F       0.00802357      -0.09383572       0.74437008
Ti       0.00203171       6.31498935      32.50756804  F      -0.00799319      -0.09379572       0.74448872
Ti       5.87131298       3.27245235      33.12467977  F       0.00258284       0.26567536       0.23606585
Ti       2.93662830       3.27247992      33.12463637  F      -0.00242081       0.26565743       0.23630488
Ti       1.46794715       1.14314089      34.43827159  F       0.00009601       0.06072209      -0.76183523
Ti       4.40399413       1.14382307      34.43918287  F       0.00002460       0.06208813      -0.75845496
