64
Lattice="5.088765 0.0 0.0 0.0 9.739025 0.0 0.0 0.0 38.303587" Properties=species:S:1:pos:R:3:move_mask:L:1:forces:R:3 job_name=BondOrder-VacuumGB-T2-Al-Al-40-d-2.77 top_level=BondOrder-VacuumGB solute=Al energy=-477.5619008 stress_kbar_3x3="_JSON [[-18.63775853, -0.85143174, 0.62088948], [-0.85143172, -19.71423484, -0.34673529], [0.62088947, -0.34673529, -21.55795738]]" pbc="T T T"
Ti       2.55388322       9.25271653       8.34455134  F       0.84328386       0.03710612       0.94408782
Ti       0.00167420       4.38292159       8.33535848  F       0.84851677       0.01569237       0.96725417
Ti       1.27859801       1.87933965       8.96365222  F      -0.84231369      -0.41887321       0.63868225
Ti       3.81662973       6.74658296       8.96016659  F      -0.83525404      -0.41814204       0.64918570
Ti       2.71501388       4.07360042       9.74194280  F      -0.15533656      -0.07491441       0.10705328
Ti       0.16803102       8.94216824       9.73366922  F      -0.15693655      -0.08292396       0.10841828
Ti       1.03573670       6.21812399      10.46392711  F       0.11196878       0.25586139      -0.67901117
Ti       3.58804240       1.35206884      10.47093667  F       0.10807760       0.23362423      -0.68219510
Ti       0.22439418       3.50262086      11.11428371  F       0.05510634       0.24971856      -0.46970099
Ti       2.76668520       8.36915322      11.11474336  F       0.04880560       0.26238335      -0.47048932
Ti       1.10604307       0.87510983      11.84718455  F      -0.04827042       0.01917181      -0.20013192
Ti       3.64715350       5.74418407      11.85526661  F      -0.04563465       0.01529933      -0.19182964
Ti       2.76089418       3.10405127      12.54729751  F       0.01270070      -0.06876746      -0.05312179
Ti       0.21024233       7.97621278      12.53316349  F       0.02538363      -0.07468641      -0.06628882
Ti       3.61560824       0.44020393      13.21328198  F       0.01720088       0.03538257      -0.03374672
Ti       1.07077793       5.30641490      13.20037367  F       0.00875912       0.03195776      -0.03595496
Ti       2.75139855       7.52989274      13.93783263  F      -0.00472823      -0.03352089       0.03497595
Ti       0.21523949       2.65334867      13.93637709  F      -0.01528716      -0.03348235       0.02362513
Ti       3.61024977       4.86759391      14.64847908  F       0.01185936       0.03253150      -0.02519089
Ti       1.06276313       9.73788553      14.63392372  F       0.01340871       0.02607995      -0.01941477
Ti       0.20694481       7.07215857      15.30910104  F       0.00336827      -0.00380119       0.00009640
Ti       2.76000365       2.19485485      15.34150588  F      -0.00302693      -0.00475364       0.00778936
Ti       1.10454189       4.43595059      15.99940829  F       0.00583789       0.01344193      -0.01211215
Ti       3.65404877       9.31119937      16.02943830  F       0.00493551       0.00607667      -0.01923841
Ti       0.25021966       1.79085087      16.74483440  F      -0.01054059       0.00620983      -0.00443651
Ti       2.76048708       6.67305332      16.74732413  F      -0.01556714       0.01102048      -0.00595105
Ti       1.06763816       8.84479746      17.36565893  F      -0.00249999       0.02286506       0.00775316
Ti       3.60350207       3.95176522      17.39002002  F      -0.01688332       0.01433932       0.02041361
Ti       2.74609097       1.26595638      18.22515312  F      -0.00684297       0.00645961       0.00560164
Ti       0.15267822       6.11998383      18.09315896  F       0.01447932      -0.00930860      -0.00880234
Ti       3.84057237       8.32155861      18.88972036  F       0.00067363      -0.00355271      -0.00273996
Ti       1.24312422       3.49093403      18.82452765  F      -0.00038899      -0.00805878       0.00250357
Ti       0.06821998       0.94220197      19.51376240  F      -0.00976482      -0.01616341       0.00577922
Ti       2.53509042       5.80146902      19.50139034  F       0.01069790      -0.01516805      -0.00027809
Ti       3.78825986       3.41589485      20.17040079  F       0.00149291      -0.01419735      -0.02185839
Ti       1.28823104       8.29319857      20.08329843  F      -0.00679204      -0.01827099      -0.00441710
Ti       2.34979322       1.20936291      20.99342996  F       0.00821749       0.00197760      -0.02874245
Ti       4.91538569       6.08489412      20.88694599  F      -0.01562220       0.01544704      -0.01586463
Ti       1.38841355       4.00102521      21.60555959  F       0.00062079       0.00035358      -0.00255747
Ti       4.10534590       8.82690687      21.60199735  F       0.00736847      -0.00743658       0.00465930
Al       4.85257506       1.76618192      22.28108165  F      -0.00428318      -0.00508985       0.00337892
Ti       2.33319875       6.71558364      22.24718297  F      -0.01041225       0.02645211       0.00761114
Ti       1.37844975       9.31249466      23.07691527  F       0.01461566       0.00597588       0.00993555
Ti       3.92017083       4.38967074      22.92703334  F       0.02760829      -0.00139327       0.02875484
Ti       4.86120052       7.03886084      23.65901489  F      -0.00245005       0.02680645       0.03715215
Ti       2.27772613       2.20388292      23.66204087  F      -0.00098620       0.02617242       0.05050632
Ti       1.49716555       4.89377241      24.34166141  F      -0.03424141      -0.00274223       0.01054376
Ti       3.96961327       9.72466968      24.32250962  F      -0.04324067      -0.02317251      -0.00689321
Ti       2.34228220       7.51261571      25.08942404  F       0.01868781      -0.00906485       0.02108414
Ti       4.89556495       2.62772529      25.04127643  F       0.02048682       0.02234405       0.02246515
Ti       4.03099904       5.29589675      25.77957807  F       0.04162786      -0.03925855       0.14440637
Ti       1.49588827       0.42785485      25.82148219  F       0.08773178      -0.02226955       0.17784368
Ti       4.88511262       7.97621278      26.43027941  F      -0.12358656      -0.02407859       0.15950234
Ti       2.34024160       3.09846106      26.44150236  F      -0.12380235      -0.01594963       0.15185473
Ti       1.44039529       5.73131882      27.15165086  F       0.12454077       0.15499683       0.45883925
Ti       3.99261958       0.87311333      27.15092309  F       0.11673825       0.13133486       0.46795096
Ti       2.33176372       8.36019332      27.89221241  F       0.12109515       0.31865733       0.37797188
Ti       4.87040609       3.50096523      27.87283080  F       0.12967438       0.28579507       0.41609253
Ti       1.51648759       1.35343230      28.53712990  F      -0.24409035       0.15554381       0.14270553
Ti       4.05831553       6.22169821      28.51292204  F      -0.24961812       0.13038025       0.12072338
Ti       4.94106868       8.94716436      29.24448225  F      -0.75948986      -0.59959951      -0.56285304
Ti       2.39367872       4.07350303      29.25428796  F      -0.77689317      -0.61037643      -0.58818865
Ti       3.82847637       1.87657377      30.03211891  F       0.84884119       0.04282737      -1.07029872
Ti       1.27454735       6.74558958      30.03234873  F       0.85037297       0.01873050      -1.05489323
