100
Lattice="4.4265 -2.555641 0.0 3.767997 6.526363 -0.031456 0.0 0.0 61.781652" Properties=species:S:1:pos:R:3:move_mask:L:1:forces:R:3 job_name=BondOrder-VacuumGB-CSL13-V-V-62-d-5.77 top_level=BondOrder-VacuumGB solute=V energy=-760.97242865 stress_kbar_3x3="_JSON [[-34.91862551, -2.23590749, -0.19177865], [-2.23590747, -36.22485963, -0.54197218], [-0.19177866, -0.54197216, -28.65702406]]" pbc="T T T"
Ti       2.47152675      -0.90393134       8.00748277  F       0.14314073      -0.05147921       1.78886805
Ti       5.76638426       1.54257578       7.99176241  F      -0.11857653       0.10852167       1.78941509
Ti       4.98482337      -0.80940189       9.37375726  F       0.35607233      -0.00136390      -0.13328247
Ti       4.59284002       3.76827956       9.35938679  F      -0.17097389       0.31944507      -0.13694080
Ti       7.09809832       3.85685982      10.62450122  F      -0.11917551      -0.03753118      -1.02319886
Ti       3.80864729       1.40434227      10.64029380  F       0.01979071      -0.11517516      -1.02178923
Ti       1.66253294      -0.45063352      10.86629316  F       0.28526700      -0.23975047      -0.18593369
Ti       2.13733347       3.62579205      10.85075180  F      -0.34224021       0.12411275      -0.18361871
Ti       4.72538143       3.65030128      12.15843083  F       0.02552240      -0.13193339      -0.42754416
Ti       4.81643254      -0.75286239      12.17409591  F      -0.13353280      -0.05291248      -0.42237395
Ti       3.44291232       5.86673740      13.25305579  F      -0.07842430       0.04892272      -0.07712552
Ti       2.95064657       1.80002120      13.26866029  F       0.07733515      -0.05410844      -0.08017970
Ti       2.40562760      -0.95892428      13.74968227  F       0.04853191      -0.04810181      -0.04027145
Ti       5.75206630       1.45933395      13.73358568  F      -0.06362207       0.01989346      -0.03406060
Ti       4.28083909       3.75911405      14.95174306  F      -0.02225860       0.01651482      -0.03900863
Ti       5.13256882      -1.08378455      14.96753372  F       0.02732223      -0.01815941      -0.04113818
Ti       6.92512583       3.59117090      15.84902886  F       0.01065937      -0.00332004       0.04413950
Ti       3.66535551       1.12138665      15.86445122  F      -0.01494081       0.00975156       0.04689106
Ti       6.37293690       0.88507777      16.60560626  F       0.00119260       0.00273268       0.07969627
Ti       1.59795434      -0.70891496      16.62083972  F       0.00236044      -0.00014901       0.07848562
Ti       4.78928850       3.17613821      17.68162307  F      -0.00617749      -0.00389966       0.06602640
Ti       4.37487516      -0.93481255      17.69765747  F      -0.00373524      -0.01204112       0.06719070
Ti       3.17193321       5.40364398      18.47751306  F      -0.00285545       0.00890094       0.02383913
Ti       2.68523337       1.33374912      18.49392060  F       0.01260117       0.00401009       0.01875678
Ti       5.89188479       5.19238990      19.43917399  F       0.01070591      -0.01257356      -0.02034936
Ti       5.56862164       1.02764751      19.45539794  F      -0.00900094      -0.00199447      -0.02035896
Ti       0.58731090       0.90545847      20.36966898  F      -0.01494101      -0.00104308      -0.03686884
Ti       3.85236310       3.37141877      20.35443476  F      -0.00083251      -0.00582242      -0.04064647
Ti       3.29513996       0.64824407      21.18225688  F       0.01369306       0.00129790      -0.01709946
Ti       6.69942896       3.03192766      21.16814156  F       0.01137770       0.02155111      -0.03481252
Ti       5.08735998       5.35557340      22.28938585  F       0.00963860       0.00200474      -0.02605855
Ti       6.11532408       0.41358859      22.30436372  F      -0.00306999       0.00005324      -0.02304579
Ti       4.53718141       2.63292608      22.96483780  F      -0.00578927      -0.00420556      -0.00358781
Ti       4.03401818      -1.42873411      22.98063211  F      -0.00995930       0.02366138       0.00634070
Ti       7.15188835       2.51700733      23.91834214  F       0.00456736       0.01264379       0.00323872
Ti       2.62301469       0.78326434      23.93412318  F       0.02107722      -0.00979975       0.00504152
Ti       5.74985757       4.80226356      25.17236452  F       0.02933055       0.01325905       0.01380839
Ti       5.30774208       0.71083089      25.18789192  F      -0.01966255       0.00401210       0.01547924
Ti       3.62187293       2.95280583      25.56375736  F       0.00170268      -0.01722580       0.03799296
Ti       0.34181315       0.49167267      25.58376264  F      -0.01507227       0.02264240       0.01715462
Ti       2.88153465       0.53013418      26.73747044  F       0.00966403       0.02716365      -0.02813677
Ti       6.81036689       2.61502763      26.72056028  F       0.00206848      -0.00008138      -0.01301432
Ti       4.94063027       5.22438705      28.04203810  F      -0.01001337       0.00830385      -0.01632970
Ti       1.65077050       2.77534256      28.05769542  F       0.01577506      -0.02009323      -0.00949435
Ti       4.40632752       2.44042383      28.20896845  F      -0.01832544       0.01413989      -0.00907576
Ti       3.93098985      -1.63812812      28.22587782  F       0.03528314       0.00211844      -0.02804854
Ti       6.90633692       2.54477401      29.50665754  F      -0.00320073      -0.02190194      -0.01802197
Ti       2.77605608       0.57739651      29.52331620  F      -0.00894127       0.04035837      -0.03944438
Ti       3.61005423       2.90762730      30.89656686  F       0.00225928      -0.01093583      -0.01173900
Ti       0.30247731       0.46199828      30.90298155  F       0.03046935      -0.00783717      -0.01176189
Ti       5.74991105       4.76233486      30.88885610  F      -0.03300313       0.02825219      -0.01427931
Ti       5.27123159       0.68500744      30.90990739  F       0.03470735       0.03485745      -0.01152320
Ti       2.77103931       0.60669426      32.28906176  F       0.00828304       0.04227348       0.04499769
Ti       6.91962242       2.55720482      32.27909829  F      -0.01405988      -0.02696905       0.02273392
Ti       3.95276154      -1.61206195      33.55409673  F      -0.01393581       0.01938934       0.01261250
Ti       4.42539830       2.47671639      33.59844343  F      -0.01951845      -0.00505933       0.00820225
Ti       1.65798764       2.80841082      33.76779179  F       0.03000343      -0.00455950      -0.00423700
Ti       4.95157433       5.26168201      33.74618038  F       0.03353950      -0.01104881       0.00530659
Ti       2.94782347       0.54781499      35.07068630  F       0.02393291       0.04511230      -0.00308878
Ti       6.82111892       2.68141051      35.06860538  F      -0.01022542       0.01842905      -0.00514972
Ti       4.81820094      -1.82523370      36.21412042  F      -0.04186827      -0.03377550       0.00303116
Ti       3.57316649       2.96843069      36.20618634  F       0.01699035      -0.06413391      -0.00496549
V        5.34762994       0.84900278      36.52838171  F       0.00394115       0.05128771      -0.00021439
Ti       5.68494327       4.86489011      36.59458900  F       0.03025598       0.00054375       0.00814521
Ti       7.17259647       2.54703776      37.80392556  F      -0.02245355       0.04083663       0.03967951
Ti       2.68364645       0.79789374      37.85631547  F       0.02425574      -0.00131678      -0.02619701
Ti       4.56996222       2.69059346      38.76114084  F       0.02113355      -0.01373191      -0.03607231
Ti       4.03615752      -1.40389861      38.78724997  F      -0.00790305      -0.01206772      -0.00161073
Ti       6.10353950       0.45995089      39.33933741  F      -0.01036593       0.01729521       0.01381799
Ti       5.11030677       5.40784104      39.45919683  F      -0.01455186      -0.01359256      -0.01160892
Ti       3.34491207       0.68583338      40.57496878  F       0.00926265       0.00069061       0.02962400
Ti       6.71247062       3.05515028      40.54806968  F       0.00811502       0.00604392      -0.02153393
Ti       3.86318608       3.40172645      41.34770797  F      -0.00290695       0.02256258       0.08810868
Ti       0.62318403       0.96867614      41.37469480  F      -0.03338249       0.00256279      -0.02828425
Ti       5.91476622       5.23403555      42.28187657  F       0.01411558      -0.03483016       0.00774307
Ti       5.61312440       1.06362361      42.28874687  F       0.00937526       0.02143529      -0.01796551
Ti       3.22263838       5.44942251      43.21208217  F      -0.03182287      -0.02975945      -0.00736261
Ti       2.71479918       1.37667832      43.25035304  F       0.02157383       0.00717036      -0.03503157
Ti       4.80549428       3.23211504      44.03379453  F       0.01185548       0.00396008      -0.07216139
Ti       4.42354331      -0.89831753      44.03908159  F      -0.03192740       0.00120644      -0.00603883
Ti       6.40678409       0.92142786      45.16316969  F      -0.00615435       0.03411328      -0.07358041
Ti       1.62760641      -0.66928135      45.17401354  F      -0.00532215      -0.02716756      -0.07169405
Ti       6.96673722       3.64046807      45.81805469  F      -0.00037221      -0.02478104      -0.06850311
Ti       3.69995298       1.17593416      45.84484053  F       0.01211466      -0.01876488      -0.07368463
Ti       4.35253939       3.76217545      46.77203687  F       0.00907485       0.02173776      -0.03934423
Ti       5.11775156      -1.02665626      46.78311725  F      -0.00809602      -0.00522587      -0.02807682
Ti       5.75668808       1.47859414      48.04351438  F       0.04167223      -0.01405426       0.01254834
Ti       2.42856766      -0.95324228      48.05980716  F      -0.04255970       0.03503740      -0.00380452
Ti       3.45878525       5.88951753      48.41121036  F      -0.01546732      -0.08347722       0.08212988
Ti       2.97187399       1.82212902      48.42618830  F      -0.06045334      -0.05210528       0.11223504
Ti       4.69373553       3.67811795      49.57707167  F      -0.00153531       0.02211021       0.45355251
Ti       4.85887696      -0.77062378      49.59039918  F       0.04660665       0.03513066       0.45436184
Ti       2.14170305       3.62601034      50.91824379  F       0.19122682      -0.05121061       0.53615639
Ti       1.66260223      -0.44995127      50.93459561  F      -0.13017460       0.15286506       0.53715647
Ti       7.10267151       3.85590764      51.05131910  F       0.53636655      -0.16929823       0.28782181
Ti       3.80785941       1.40731198      51.06970352  F      -0.40119294       0.37906339       0.27333592
Ti       4.61271889       3.75698523      52.36726219  F       0.05755521      -0.19153730       0.28149170
Ti       4.96633019      -0.80107434      52.38602831  F      -0.20361850      -0.03507350       0.26320904
Ti       3.48305011       5.96262209      53.73239627  F       0.07614118      -0.10032227      -1.37711975
Ti       3.01133621       1.88059437      53.74918708  F      -0.12131444       0.00731959      -1.38287341
