52
Lattice="5.088765 0.0 0.0 0.0 5.495746 0.0 0.0 0.0 48.722931" Properties=species:S:1:pos:R:3:move_mask:L:1:forces:R:3 job_name=BondOrder-VacuumGB-C1-V-V-33-d-5.07 top_level=BondOrder-VacuumGB solute=V energy=-394.81329492 stress_kbar_3x3="_JSON [[-36.26116492, -0.69878682, -1.03383898], [-0.69878686, -27.72973777, -1.58566589], [-1.033839, -1.58566592, -24.52834597]]" pbc="T T T"
Ti       2.63721684       0.80452775      40.68525524  F       0.09018353      -0.04702045      -1.64880864
Ti       0.05840376       1.61163851       9.36142907  F       0.05768878       0.59692393       0.02604379
Ti       0.84061309       4.36346844       9.36386522  F       0.05999930      -0.58494701       0.35072828
Ti       2.58532161       2.37223327      10.58232828  F      -0.23456918       0.39628714      -0.49407006
Ti       3.37721487       5.12254638      10.57341198  F       0.22208156      -0.33289554      -0.64324078
Ti       0.82983509       0.40520685      11.83260741  F      -0.02191207      -0.03211910      -0.36587401
Ti       0.05586955       3.15413503      11.81516460  F       0.05232600      -0.03402339      -0.22521362
Ti       3.40077585       1.20173279      13.06861072  F      -0.07118128       0.02173112       0.02617259
Ti       2.59326009       3.94725911      13.07343429  F       0.05729089      -0.03494216       0.03506959
Ti       0.03044099       4.71669103      14.32566234  F      -0.02928520      -0.00768299       0.01287260
Ti       0.84995606       1.97514363      14.30748869  F       0.04137475       0.03642274       0.03845009
Ti       3.38996731       2.75775985      15.58378587  F      -0.00187273       0.01535580      -0.03116127
Ti       2.58978446       0.01337115      15.54963109  F       0.00253752       0.01161889      -0.02064258
Ti       0.87745575       3.56852527      16.81871727  F      -0.01393400      -0.00426556       0.00400178
Ti       0.06050033       0.81651397      16.81413732  F       0.00431590      -0.00677692      -0.00242856
Ti       2.57411107       1.57942244      18.08288244  F       0.01478678       0.00568431       0.01236666
Ti       3.40580864       4.34865191      18.04015243  F      -0.00052742       0.00361048       0.00356177
Ti       0.82456821       5.11496225      19.34149320  F       0.01064061       0.00755318      -0.00181278
Ti       0.04395675       2.37544278      19.26918837  F       0.00394696       0.00488079       0.00600719
Ti       3.41951268       0.45049729      20.58875151  F      -0.00907942       0.00063601       0.00197476
Ti       2.64408158       3.19715573      20.53525373  F       0.00340271      -0.00392668      -0.00636188
Ti       0.04513735       3.94873747      21.84979841  F       0.01175151       0.00717582      -0.00623578
Ti       0.87793918       1.21719233      21.74187711  F       0.00295388       0.00436271      -0.00776636
Ti       2.54678949       4.72789136      22.96682032  F      -0.00665134       0.00973514      -0.00994323
Ti       3.25418380       1.98138131      23.06772551  F       0.00200453       0.00066680       0.00231426
Ti       0.74326502       2.84444974      24.59250964  F       0.00112740       0.00219823      -0.00592396
Ti       0.13864849       0.11409718      24.21402991  F      -0.00035422       0.00112492      -0.00096574
Ti       3.36087993       1.82889634      25.81832986  F       0.00143648       0.01099041       0.00423914
Ti       2.80523259       4.60863367      25.68244161  F      -0.00247643      -0.00892754       0.01426052
Ti       4.96066043       3.82828720      27.15348434  F       0.00957850       0.00384021       0.00858486
Ti       0.80941896       0.98628306      26.91537537  F      -0.00140704       0.00130842       0.01169071
Ti       3.22656198       0.41774264      28.26339271  F       0.00703038      -0.00814729       0.00662644
Ti       2.40671614       3.18058056      28.09135204  F      -0.00496117       0.00700712       0.00214627
V        0.79176604       5.01497264      29.51937242  F      -0.01054355       0.00611325      -0.00536594
Ti       0.08400024       2.24341847      29.42221890  F       0.00192699       0.00874999      -0.00729242
Ti       2.42063391       1.46845234      30.74996749  F      -0.00687065      -0.01505790       0.00248041
Ti       3.38614056       4.19117131      30.55858382  F      -0.00880384       0.00241309      -0.00587040
Ti       4.98571242       0.78585870      31.83166528  F       0.02196711       0.00119778      -0.00571058
Ti       0.80327682       3.58938712      31.88428605  F      -0.00051546       0.00046594      -0.01240323
Ti       3.35381164       2.73101205      33.13407795  F      -0.00886035       0.00867450       0.01670945
Ti       2.59402849       5.45231312      33.13130074  F      -0.00490348      -0.00218792       0.01757550
Ti       0.82346395       1.91772408      34.33363651  F       0.02946028      -0.02630528      -0.02073914
Ti       5.07770202       4.66760303      34.42279947  F      -0.04332793       0.02021838      -0.04062067
Ti       2.52712650       3.91876916      35.60793605  F       0.07360599       0.02949537      -0.02607400
Ti       3.36104277       1.18858697      35.63010498  F      -0.05845709      -0.03753680      -0.04542371
Ti       0.82563685       0.39386363      36.86947018  F      -0.06177631      -0.04281704       0.21982165
Ti       0.05172221       3.12931624      36.85348906  F       0.02349729      -0.03330061       0.36656827
Ti       2.58299096       2.36001073      38.13251472  F      -0.24516917      -0.32843526       0.68414297
Ti       3.37686883       5.10493251      38.09124640  F       0.23323087       0.36952535       0.49330149
Ti       0.81200914       4.35551060      39.32793183  F      -0.06114372       0.57560725      -0.03424306
Ti       0.01996831       1.60417528      39.32408272  F      -0.02737560      -0.56389083      -0.34694927
Ti       3.33248462       3.55078500       8.00118228  F      -0.10418785      -0.01636882       1.65343065
