64
Lattice="5.871999 0.0 0.0 0.0 6.890708 0.0 0.0 0.0 43.401158" Properties=species:S:1:pos:R:3:move_mask:L:1:forces:R:3 job_name=BondOrder-VacuumGB-T1m-V-V-45-d-4.84 top_level=BondOrder-VacuumGB solute=V energy=-485.83831601 stress_kbar_3x3="_JSON [[-19.55273434, 0.00043469, 0.0001509], [0.00043469, -27.70252787, -1.18503428], [0.00015087, -1.1850343, -18.6593033]]" pbc="T T T"
Ti       2.94655735       0.08631990      34.53603747  F      -0.02151325      -0.28939694      -0.21664971
Ti       2.93843051       2.92137078      34.52193209  F       0.00102027       0.12789669      -0.97563021
Ti       5.86146463       0.08634746      34.53599407  F       0.02154863      -0.28953944      -0.21644109
Ti       5.86958561       2.92135011      34.52193209  F      -0.00097482       0.12796706      -0.97568918
Ti       4.40404035       5.01265932       8.54334435  F      -0.00009477       0.00171018       0.96314940
Ti       1.46799388       5.01361712       8.54364816  F       0.00004276      -0.00378485       0.94998992
Ti       4.40404035       1.32115544       9.16654158  F      -0.00008129      -0.25961513       0.16159442
Ti       1.46798213       1.31873681       9.15872937  F       0.00016204      -0.24147521       0.19199380
Ti       2.93411459       3.41112096      10.35568990  F       0.00140624       0.13666710      -0.27315932
Ti       0.00194363       3.41112096      10.35564650  F      -0.00146476       0.13663992      -0.27294687
Ti       2.93614630       6.22884861      10.75116126  F      -0.00140394       0.15075159      -0.54228851
Ti       5.87190505       6.22885550      10.75120466  F       0.00139073       0.15066640      -0.54239540
Ti       1.46802911       1.49544212      11.97828560  F      -0.00007262      -0.03367513      -0.00796509
Ti       4.40401687       1.49584867      11.98119347  F       0.00005689      -0.03346355      -0.01238375
Ti       1.46800562       4.45234139      12.58763785  F       0.00003820      -0.00314995       0.05384943
Ti       4.40405210       4.45341635      12.58776806  F      -0.00009322      -0.00311161       0.05263245
Ti       2.93731483       6.61243365      13.75083229  F      -0.00466469       0.04635075      -0.10896091
Ti       5.87070716       6.61243365      13.75078889  F       0.00471575       0.04625497      -0.10835336
Ti       2.93683332       2.53940506      14.25068343  F      -0.00200862       0.01720365       0.04351968
Ti       5.87119454       2.53938438      14.25068343  F       0.00203312       0.01755631       0.04362153
Ti       4.40393466       4.70603659      15.41925961  F       0.00044014      -0.03618612      -0.00942932
Ti       1.46808196       4.70342501      15.41938981  F      -0.00051496      -0.03437292      -0.01095117
Ti       4.40393466       0.75702007      16.02926288  F       0.00044676       0.00517873      -0.03761509
Ti       1.46807021       0.75664797      16.01819559  F      -0.00044991       0.00821756      -0.03770864
Ti       5.87141767       2.91949651      17.23325441  F       0.00041149      -0.00712972      -0.01184494
Ti       2.93659257       2.91955164      17.23321100  F      -0.00037443      -0.00722494      -0.01180233
Ti       5.86769482       5.74399083      17.66539974  F       0.00149287       0.01765830       0.02674809
Ti       2.94030368       5.74399772      17.66544314  F      -0.00140427       0.01737092       0.02677067
Ti       1.46805847       0.96243897      18.83779522  F      -0.00041254      -0.00095456       0.00802230
Ti       4.40395227       0.96528483      18.85667472  F       0.00037377      -0.00301845       0.00277484
Ti       1.46809957       4.10029512      19.45309343  F      -0.00038186       0.00183378      -0.01544275
Ti       4.40393466       4.10189377      19.46220768  F       0.00028814      -0.00357053      -0.00715996
Ti       2.91991609       2.16395794      20.91536525  F       0.00763402       0.01492339      -0.01186489
Ti       0.01608928       2.16410954      20.91540865  F      -0.00759703       0.01394909      -0.01235483
Ti       2.93167184       6.20966487      20.83646194  F       0.00293374       0.00085799      -0.00896889
Ti       0.00436877       6.20974067      20.83646194  F      -0.00298858       0.00051895      -0.00900317
Ti       4.40396402       4.16476459      22.29968859  F       0.00006572       0.00336370       0.00453223
Ti       1.46804085       4.15402197      22.29053094  F       0.00003050       0.00723733       0.01451577
Ti       4.40400512       0.86108354      22.86915518  F       0.00009906      -0.00917191      -0.00324072
Ti       1.46797039       0.87952997      22.92002134  F      -0.00004533      -0.01273620       0.00656015
Ti       2.92517153       5.72830069      24.14119972  F      -0.00420788      -0.00587518       0.01861999
Ti       0.01086907       5.72827312      24.14124312  F       0.00414933      -0.00581083       0.01846990
Ti       2.91396189       2.85723207      24.43893166  F      -0.00064365      -0.00483986      -0.00294171
Ti       0.02202000       2.85720451      24.43893166  F       0.00066940      -0.00458858      -0.00312302
Ti       4.40405210       0.73741601      25.66241031  F      -0.00021357       0.00614890       0.00628815
V        1.46802324       0.74943340      25.67508345  F       0.00003007       0.00016040       0.00029255
Ti       4.40399338       4.59231924      26.27332501  F       0.00001924       0.00990439      -0.00480975
Ti       1.46800562       4.65028387      26.28986085  F       0.00012774       0.00534109      -0.00896676
Ti       0.02642400       2.45823941      27.40253634  F       0.00035053      -0.02764460       0.02218746
Ti       2.90965184       2.45826697      27.40257974  F      -0.00034696      -0.02779975       0.02203181
Ti       0.02570761       6.56319265      27.87873384  F      -0.00409918       0.00260511      -0.01651877
Ti       2.91034474       6.56321332      27.87877724  F       0.00406475       0.00249287      -0.01673278
Ti       1.46799388       4.40013050      29.08090252  F       0.00018719      -0.03404871      -0.02043068
Ti       4.40402274       4.41360873      29.07065984  F      -0.00001973      -0.03226755      -0.02102195
Ti       1.46801149       1.46132623      29.69463829  F       0.00022583       0.01780916      -0.02123737
Ti       4.40406971       1.45524173      29.66456129  F      -0.00028517       0.01349864      -0.00306554
Ti       2.93797249       6.19930125      30.89893362  F       0.00255804       0.00571721       0.04484510
Ti       5.87008473       6.19930814      30.89893362  F      -0.00257808       0.00555458       0.04484575
Ti       2.93868888       3.38648668      31.31471672  F       0.00622696       0.01434381      -0.05372074
Ti       5.86934486       3.38645223      31.31471672  F      -0.00623517       0.01468658      -0.05372908
Ti       4.40401687       1.29213178      32.48255508  F      -0.00005511      -0.07042616       0.69799074
Ti       1.46801737       1.29247632      32.50256301  F       0.00003227      -0.07397639       0.69828497
Ti       4.40402861       5.01470586      33.11634219  F      -0.00012106       0.19482012       0.26624045
Ti       1.46799975       5.01189445      33.11786123  F       0.00007426       0.21499749       0.27617671
