52
Lattice="5.088765 0.0 0.0 0.0 5.495746 0.0 0.0 0.0 48.722931" Properties=species:S:1:pos:R:3:move_mask:L:1:forces:R:3 job_name=BondOrder-VacuumGB-C1-Al-Al-25-d-0.00 top_level=BondOrder-VacuumGB solute=Al energy=-391.85014244 stress_kbar_3x3="_JSON [[-36.06466899, -2.05071855, 0.00176906], [-2.05071851, -21.46803588, -0.01308591], [0.00176904, -0.01308591, -19.75130366]]" pbc="T T T"
Ti       2.62666274       0.79368465       8.62965937  F       0.03620931       0.00080667       1.17418806
Ti       0.02829353       1.59845421      10.00910299  F      -0.27610217       0.10634194      -0.23950662
Ti       0.81344926       4.34837163      10.00686174  F       0.29263143       0.09512885      -0.22539057
Ti       2.56904774       2.35874121      11.22025761  F       0.09523843      -0.10059579      -0.75139353
Ti       3.36267118       5.10619104      11.22288865  F      -0.09593130      -0.09860020      -0.74924184
Ti       0.81334749       0.38862069      12.46634657  F       0.01746740      -0.01593217      -0.03945676
Ti       0.03620656       3.13663658      12.46673635  F      -0.00899971      -0.00367565      -0.03579932
Ti       3.37200397       1.18235479      13.70415263  F      -0.00607043       0.00430135       0.05253483
Ti       2.56395898       3.92852961      13.71404339  F       0.01092723       0.01479341       0.05022697
Ti       0.01687943       4.70252300      14.94902352  F      -0.01590088       0.00208672       0.00683360
Ti       0.83334633       1.95511714      14.95277519  F       0.01973872      -0.00113356       0.00492541
Ti       3.38298044       2.74466898      16.19881542  F      -0.01094944       0.00654186      -0.02178072
Ti       2.57781060       5.49149229      16.19788969  F       0.01517287       0.00550804      -0.01884910
Ti       0.84051132       3.54779532      17.43379556  F      -0.00525010      -0.00573284       0.00487748
Ti       0.02202417       0.79482227      17.45464897  F      -0.00066926      -0.00174165      -0.00219846
Ti       2.56283945       1.57068421      18.68100514  F       0.00245824      -0.00804367       0.00404499
Ti       3.38519914       4.32385511      18.69455012  F      -0.00059180       0.00622907       0.00218187
Ti       0.83429793       5.09545784      19.94351373  F      -0.00038088       0.00376758      -0.00784901
Ti       0.05506044       2.36528664      19.92178330  F      -0.00424950      -0.00183641      -0.00990776
Ti       3.37735735       0.41315919      21.17401135  F      -0.00181649      -0.00814468      -0.01002547
Ti       2.60656721       3.15795458      21.19203884  F      -0.01583587      -0.00187704      -0.00755341
Ti       5.08837317       3.95163373      22.41196358  F       0.00913235      -0.00324257       0.00172076
Ti       0.83073580       1.15401873      22.41625120  F      -0.00942528      -0.00601900      -0.00066738
Ti       2.53604710       4.62602771      23.58530921  F       0.00170184       0.00637832       0.01609067
Ti       3.28284372       1.86105195      23.62901368  F       0.01146549       0.00398186       0.02521690
Al       0.73300607       2.76420086      24.99062471  F       0.00090212       0.00290424       0.00179698
Ti       0.12044089       0.03150162      24.99062471  F      -0.01727692      -0.00638854       0.00147575
Ti       3.28306254       1.86100798      26.35213829  F       0.00806149       0.00492700      -0.01712460
Ti       2.53612343       4.62636295      26.39564787  F       0.00589044       0.00142136      -0.00464365
Ti       5.08857163       3.95177661      27.56948072  F       0.00589840      -0.00278072      -0.00396428
Ti       0.83079686       1.15415063      27.56509566  F      -0.00897923      -0.00115203       0.00069494
Ti       3.37736244       0.41338452      28.80738423  F      -0.00462731      -0.00934496       0.00608201
Ti       2.60663845       3.15814693      28.78964908  F      -0.01030591      -0.00296595       0.00127554
Ti       0.83428776       5.09571065      30.03802802  F      -0.00080922       0.00879704       0.00057231
Ti       0.05514186       2.36568234      30.05961228  F      -0.00743354      -0.00393015       0.00249419
Ti       2.56293614       1.57096999      31.30048789  F       0.00703521      -0.00518356      -0.00148909
Ti       3.38523476       4.32414638      31.28684547  F      -0.00343715       0.00617137       0.00186621
Ti       0.02209542       0.79500912      32.52669789  F       0.01361043      -0.00866774       0.02322467
Ti       0.84056729       3.54804812      32.54750258  F      -0.01732778      -0.01627376       0.01598075
Ti       3.38294482       2.74497674      33.78262888  F       0.00260084      -0.00089157       0.01952039
Ti       2.57779024       5.49172861      33.78350590  F      -0.00130382      -0.00266581       0.01575893
Ti       0.83336160       1.95546337      35.02886401  F       0.01097538       0.01274712      -0.06416439
Ti       0.01691505       4.70286923      35.03256696  F      -0.00872728       0.01276497      -0.06612258
Ti       2.56404040       3.92885935      36.26769326  F       0.05165376      -0.01144150       0.07042389
Ti       3.37203451       1.18265156      36.27748657  F      -0.04554647      -0.01237222       0.06401453
Ti       0.81331695       0.38893944      37.51543880  F      -0.07236544      -0.07717930       0.55818616
Ti       0.03622183       3.13696632      37.51514646  F       0.08615675      -0.07195573       0.55649145
Ti       2.56892561       2.35897203      38.76128414  F      -0.39253574       0.10225221      -0.01546146
Ti       3.36281366       5.10644934      38.75875055  F       0.38939705       0.09192651      -0.01613748
Ti       0.81346453       4.34869038      39.97468002  F      -0.10673017      -0.01318136      -0.76458295
Ti       0.02858359       1.59881693      39.97253621  F       0.10686477      -0.00172273      -0.77172783
Ti       3.32051076       3.54203028       8.62941576  F      -0.05161088       0.00489539       1.16233803
