64
Lattice="5.088765 0.0 0.0 0.0 9.739025 0.0 0.0 0.0 38.303587" Properties=species:S:1:pos:R:3:move_mask:L:1:forces:R:3 job_name=BondOrder-VacuumGB-T2-Al-Al-43-d-3.50 top_level=BondOrder-VacuumGB solute=Al energy=-477.93896239 stress_kbar_3x3="_JSON [[-17.73379677, -1.99895622, 0.66251674], [-1.99895623, -20.04868181, -1.28072115], [0.66251675, -1.2807211, -20.15431606]]" pbc="T T T"
Ti       2.58576943       9.29526633       8.44555790  F       0.64302876       0.14801344       0.84811249
Ti       0.03093969       4.42309507       8.44754968  F       0.65177946       0.12383811       0.85535147
Ti       1.31029592       1.99115340       8.95369328  F      -0.73245614      -0.20300153       0.53908900
Ti       3.85755866       6.86287666       8.93898471  F      -0.73806283      -0.20288353       0.55376316
Ti       2.60254708       4.27840238       9.65878571  F      -0.02300543      -0.32394936       0.19928768
Ti       0.06237808       9.14204225       9.65066535  F      -0.03701361      -0.32889486       0.20472157
Ti       1.01334104       6.37863286      10.49085453  F       0.07850558       0.24401676      -0.73379586
Ti       3.56826237       1.50842889      10.48752212  F       0.07602985       0.23467437      -0.73691122
Ti       0.25958299       3.61998585      11.12941363  F       0.09874970       0.18725606      -0.45158943
Ti       2.80870313       8.48735577      11.12282541  F       0.11374640       0.19617641      -0.43828851
Ti       1.09971265       0.93030089      11.83347186  F      -0.05552531       0.04950599      -0.18384736
Ti       3.64227846       5.80434203      11.84051972  F      -0.06124703       0.03685778      -0.19221600
Ti       2.71552784       3.21195966      12.55809912  F       0.00149084      -0.11764484       0.02547858
Ti       0.17427493       8.08274797      12.56372975  F       0.00467291      -0.11876220       0.01934812
Ti       3.59815887       0.55376096      13.21086885  F       0.01704921       0.05356499      -0.02051847
Ti       1.05166962       5.42054653      13.21603984  F       0.02138170       0.06146756      -0.01423587
Ti       2.74158232       7.62824716      13.89523904  F      -0.01543126      -0.03501203       0.04101102
Ti       0.19605485       2.76108176      13.89792029  F      -0.01943385      -0.04884025       0.04635757
Ti       3.59561448       4.97095418      14.65966373  F       0.01410966       0.01948456      -0.01844878
Ti       1.05618335       0.11097619      14.66062132  F       0.01167614       0.01592828      -0.02144720
Ti       0.21205902       7.17326912      15.33116391  F      -0.00983545       0.02231259      -0.00102313
Ti       2.75605986       2.30477922      15.32848266  F      -0.00526848       0.01285985       0.00293109
Ti       1.08184091       4.51020091      16.01223999  F       0.00306111       0.01186733      -0.00668757
Ti       3.63653324       9.38882914      16.00140008  F      -0.00072702       0.00367321      -0.01030878
Ti       0.15776189       1.92308735      16.73311350  F      -0.02052954      -0.00550580      -0.01640138
Ti       2.71324808       6.78938598      16.71668126  F      -0.02053851       0.00600133      -0.02470825
Ti       1.02857171       8.98253649      17.42280789  F       0.00739731       0.01307748      -0.00156856
Ti       3.53968896       4.10579764      17.43050691  F       0.00644119       0.01294611       0.01127136
Ti       2.75035535       1.39668331      18.06094565  F       0.00294146       0.01959413       0.01364542
Ti       0.21420139       6.23811821      18.05294020  F       0.00340702       0.01770698       0.00280608
Ti       3.75769165       8.37452916      18.87286678  F      -0.00964628       0.00582502       0.01109304
Ti       1.13926253       3.53471095      18.94384333  F       0.00840248       0.00836178       0.00686591
Ti       5.03343486       0.91675390      19.59829841  F      -0.00510016       0.00818953       0.00946666
Ti       2.52441419       5.81136387      19.52831776  F      -0.01628970      -0.01670543       0.01198962
Ti       3.73665978       3.35037069      20.15205337  F       0.00423387      -0.01342329       0.00503525
Ti       1.24241180       8.19929489      20.10769782  F      -0.00403373      -0.01341400       0.00001301
Ti       2.47834560       1.02087382      20.79639631  F       0.01272051       0.01256434      -0.00448980
Ti       5.05737241       5.89425271      20.84228401  F      -0.00794920       0.00359305      -0.01706292
Ti       1.52132192       3.75848453      21.69296837  F      -0.01398588      -0.00232871      -0.01939039
Ti       4.08554551       8.64481632      21.64003282  F       0.01842719      -0.00754251      -0.00617591
Ti       4.78669591       1.65649128      22.28843594  F       0.00968685      -0.00630960      -0.00547026
Ti       2.40645661       6.57092991      22.26982039  F      -0.01904367       0.01287047      -0.01096331
Ti       1.44603873       9.26132582      22.97866657  F       0.02179510      -0.00415343       0.02551642
Al       4.04951197       4.31220653      22.97380202  F       0.00712177      -0.00153313       0.00561456
Ti       4.97200838       6.91730807      23.63821604  F       0.00481334       0.00910887       0.04876754
Ti       2.42568706       2.11905602      23.77656859  F      -0.02452741       0.01103025      -0.00177412
Ti       1.54756468       4.75739684      24.34863267  F      -0.04153429      -0.00994892      -0.00820065
Ti       4.04351231       9.59418622      24.34430436  F      -0.01874034      -0.00237320       0.01009860
Ti       2.31722512       7.44703312      25.03832705  F       0.04997373       0.00809460       0.01073014
Ti       4.92609754       2.53853530      25.01929017  F       0.00249742       0.00306520       0.03018525
Ti       4.00108728       5.18396614      25.75981342  F       0.07197590      -0.05609392       0.14832678
Ti       1.47706493       0.33139954      25.80604585  F       0.05169380      -0.05862075       0.18173234
Ti       4.86783627       7.86271418      26.47180049  F      -0.13005468       0.02205454       0.13169582
Ti       2.30961742       2.98648176      26.51768819  F      -0.11172887       0.04446119       0.17838552
Ti       1.44513802       5.65098161      27.11288763  F       0.13193495       0.02870564       0.49569471
Ti       3.99172904       0.78986414      27.11713933  F       0.14759089       0.01128920       0.46939427
Ti       2.37236189       8.23845551      27.86432740  F      -0.00579898       0.27082430       0.31575341
Ti       4.90810875       3.38544091      27.86065025  F      -0.00536415       0.26045566       0.33116562
Ti       1.51772925       1.18178199      28.57857439  F      -0.27306782       0.27695909       0.17533387
Ti       4.07431970       6.05939736      28.55509429  F      -0.27518431       0.28393500       0.17393848
Ti       4.83311562       8.81021419      29.19334696  F      -0.60083917      -0.62991246      -0.41560492
Ti       2.28206684       3.95569005      29.21422241  F      -0.61692838      -0.63337311      -0.39992477
Ti       3.87417857       1.83738393      30.02407515  F       0.81218391       0.03433292      -1.17280248
Ti       1.33196897       6.70215353      30.03579605  F       0.80837144       0.03368292      -1.20611555
