64
Lattice="5.088765 0.0 0.0 0.0 9.739025 0.0 0.0 0.0 38.303587" Properties=species:S:1:pos:R:3:move_mask:L:1:forces:R:3 job_name=BondOrder-VacuumGB-T2-V-V-34-d-0.63 top_level=BondOrder-VacuumGB solute=V energy=-481.58357952 stress_kbar_3x3="_JSON [[-19.6546437, -3.6808514, -0.13507819], [-3.68085142, -20.2555817, -0.91361598], [-0.13507817, -0.91361595, -21.1063468]]" pbc="T T T"
Ti       2.53331444       9.29236410       8.34347884  F       0.88226244       0.00950073       0.90744767
Ti       5.07886735       4.42440010       8.34156366  F       0.87357301       0.03072908       0.90219072
Ti       1.25538815       1.89834049       8.95871105  F      -0.83570001      -0.46353122       0.66387105
Ti       3.79714993       6.76860290       8.95917070  F      -0.82358503      -0.46213496       0.66517086
Ti       2.72496750       4.07475936       9.74328343  F      -0.20134706      -0.01925891       0.05822614
Ti       0.17883956       8.94075608       9.74420271  F      -0.20554780      -0.03040447       0.07552032
Ti       1.03707504       6.22610025      10.46944283  F       0.11430970       0.28084406      -0.64865763
Ti       3.58270429       1.35546776      10.47197086  F       0.11539270       0.27274494      -0.64685890
Ti       0.21837926       3.51553481      11.11681175  F       0.04865994       0.25407709      -0.46193547
Ti       2.76168294       8.38381045      11.12313184  F       0.04017754       0.25342373      -0.48275615
Ti       1.10463857       0.89278616      11.84304776  F      -0.05105168       0.00909006      -0.19614888
Ti       3.65017113       5.76078911      11.84442669  F      -0.05047100       0.01312298      -0.18739415
Ti       2.73834587       3.14024148      12.54055608  F       0.02410027      -0.07771070      -0.05201540
Ti       0.19527627       8.00904303      12.54174349  F       0.02534384      -0.07753165      -0.07259638
Ti       3.59580786       0.47570268      13.21450769  F       0.02061760       0.04271551      -0.03607269
Ti       1.04973080       5.34475744      13.21492903  F       0.01705074       0.03415880      -0.02447197
Ti       2.76372354       7.54410198      13.91052217  F       0.00944347      -0.03887876       0.03297274
Ti       0.21674577       2.68038420      13.90611726  F       0.00659255      -0.04168577       0.04276545
Ti       3.60429083       4.88238749      14.67215070  F       0.01353540       0.01892403      -0.02752542
Ti       1.06635579       0.01616678      14.65958712  F       0.01477312       0.02865822      -0.03474396
Ti       0.21642518       7.09037054      15.35100517  F      -0.01118052       0.00025438       0.00409605
Ti       2.75557643       2.22894143      15.34514472  F      -0.00414779       0.01165596       0.00501940
Ti       1.09653726       4.43468451      16.00185972  F       0.01242668       0.01486104      -0.00407193
Ti       3.65158072       9.31420873      15.98385703  F      -0.00555977       0.03509424       0.00035012
Ti       0.15595538       1.86933768      16.71928590  F      -0.02244079       0.00003396      -0.01070625
Ti       2.70607801       6.73262694      16.73200269  F      -0.00521476      -0.01193707      -0.00337551
Ti       1.00085830       8.94054182      17.41813485  F       0.01845310       0.00790543      -0.01361537
Ti       3.54765287       4.06530277      17.45674486  F       0.00614419       0.00767086       0.01319260
Ti       2.81701308       1.29984819      18.05209752  F       0.00508955       0.01246941      -0.01387990
Ti       0.28974410       6.15855037      18.06106056  F       0.00648529      -0.01818213      -0.00357092
Ti       3.75779851       8.26976647      18.91339197  F       0.00836568      -0.01549149       0.00297581
Ti       1.14657509       3.42721159      18.93480368  F      -0.00440354       0.00294130      -0.00292876
Ti       5.07991564       0.80361565      19.65345558  F      -0.00304581       0.02928119      -0.00631063
Ti       2.55555234       5.65493565      19.70351837  F       0.01585303      -0.02354425      -0.00089007
V        3.77948683       3.16023570      19.97149026  F      -0.00683147      -0.00264707       0.02996096
Ti       1.22031129       8.07722595      20.05173628  F      -0.00429157      -0.00982978       0.03739628
Ti       2.53225597       0.96866290      20.75790121  F       0.00776583       0.01719983       0.02244784
Ti       5.07873504       5.70120576      20.78429238  F      -0.01707947      -0.01080173       0.02428927
Ti       1.76464122       3.67719289      21.57943654  F       0.01641651       0.00216944      -0.00953561
Ti       4.16368859       8.61553108      21.61954040  F       0.02481769      -0.00535909       0.02995505
Ti       4.70880218       1.90738805      22.23412145  F       0.00658484       0.01499807       0.01373478
Ti       2.18478492       6.71781388      22.30310621  F      -0.00330023       0.00795207       0.02274172
Ti       1.40448387       9.42731777      22.98383756  F      -0.00727769      -0.01674339      -0.00475088
Ti       3.97769423       4.53263963      23.02811650  F       0.02246751      -0.03094459      -0.02908112
Ti       4.92760381       7.12002588      23.76071091  F      -0.01718582       0.00769243      -0.01186686
Ti       2.37936403       2.24019975      23.78974503  F      -0.03403928       0.01835827      -0.00921292
Ti       1.44604382       4.86616228      24.29596523  F      -0.02344339      -0.00895337      -0.02723902
Ti       4.00052752       0.00332101      24.29232639  F      -0.01744775      -0.00176218      -0.02898738
Ti       2.34690280       7.52760407      25.03698643  F       0.00143621      -0.01467513       0.01845744
Ti       4.90026697       2.64960888      25.04866902  F       0.00115478      -0.01279008       0.00115245
Ti       4.02868365       5.30257772      25.79696790  F       0.05569348      -0.00795508       0.16128503
Ti       1.49030590       0.42673486      25.79869156  F       0.04762859      -0.00627013       0.13690648
Ti       4.84504878       8.01857754      26.47237505  F      -0.09756752      -0.01537190       0.20300685
Ti       2.30033551       3.15373003      26.47114933  F      -0.09168688      -0.01730232       0.22596841
Ti       1.42759704       5.78175723      27.12997103  F       0.10321342       0.17092467       0.44800314
Ti       3.97511931       0.91503983      27.12759621  F       0.09296335       0.16597889       0.42615572
Ti       2.32300087       8.40890792      27.89677054  F       0.10620689       0.28191628       0.41079978
Ti       4.86365330       3.53907403      27.90010295  F       0.09952473       0.28583151       0.42870164
Ti       1.51388723       1.38825906      28.51556499  F      -0.23939669       0.14409607       0.13125496
Ti       4.05270771       6.25712878      28.51590972  F      -0.23882665       0.11685735       0.13599147
Ti       4.93009731       9.01641856      29.26340422  F      -0.76402609      -0.60445963      -0.58550633
Ti       2.38567919       4.14188073      29.26279136  F      -0.76113833      -0.60878363      -0.57299002
Ti       3.79823893       1.93107336      30.04249918  F       0.83267657       0.04591733      -1.03525883
Ti       1.25246211       6.80192984      30.03740480  F       0.85003416       0.00489123      -1.03705288
