64
Lattice="5.872 0.0 0.0 0.0 6.890708 0.0 0.0 0.0 43.394398" Properties=species:S:1:pos:R:3:move_mask:L:1:forces:R:3 job_name=BondOrder-VacuumGB-T1g-Al-Al-36-d-1.90 top_level=BondOrder-VacuumGB solute=Al energy=-482.11863924 stress_kbar_3x3="_JSON [[-17.02937686, 0.00042967, -0.00011359], [0.00042968, -29.46584223, -2.12148122], [-0.00011359, -2.12148121, -16.10728974]]" pbc="T T T"
Ti       4.40321902       5.21442614      34.65285689  F      -0.01291635      -0.28765118      -0.44600355
Ti       1.46875749       5.21433656      34.65285689  F       0.01302524      -0.28760511      -0.44613967
Ti       5.87187082       3.18915059       8.54700402  F       0.00057823       0.17191650       0.93386820
Ti       2.93612918       3.18968806       8.54652669  F      -0.00074928       0.16819938       0.94218705
Ti       0.00016442       6.63611701       9.16398558  F      -0.00067584      -0.21488824       0.11446158
Ti       2.93589430       6.63438055       9.16420255  F       0.00059171      -0.20692754       0.11036400
Ti       4.40484557       1.76912726      10.45388406  F      -0.00462398       0.03849398      -0.53716738
Ti       1.46704874       1.76921684      10.45392745  F       0.00480165       0.03870889      -0.53764472
Ti       1.46780035       4.59701870      10.66703734  F      -0.00103228       0.11994269      -0.37860496
Ti       4.40428773       4.59700492      10.66703734  F       0.00096742       0.12035584      -0.37848427
Ti       5.87198826       6.72474530      11.97815568  F      -0.00005051      -0.10195548       0.01414354
Ti       2.93591779       6.72675738      11.97685385  F       0.00001947      -0.10398093       0.01130175
Ti       2.93598238       2.87696017      12.58611120  F      -0.00012907      -0.05861345       0.10274216
Ti       5.87191192       2.87697395      12.58771679  F       0.00010619      -0.06210667       0.10388252
Ti       4.40115208       5.00988925      13.74704153  F       0.00216392       0.06306055      -0.08931705
Ti       1.47067176       5.00988236      13.74704153  F      -0.00200183       0.06310842      -0.08929462
Ti       4.40239107       0.93174086      14.21735001  F       0.00242482       0.02707349       0.03431212
Ti       1.46951498       0.93174775      14.21735001  F      -0.00244026       0.02720205       0.03435642
Ti       2.93594128       3.10261018      15.40514147  F       0.00002348      -0.02008761      -0.03291827
Ti       5.87195302       3.10052919      15.40475092  F      -0.00001421      -0.02002637      -0.03167243
Ti       2.93595302       6.02019797      16.01214231  F      -0.00005190       0.01617188      -0.04929087
Ti       5.87194715       6.02108687      15.98905649  F       0.00002093       0.02023553      -0.03481553
Ti       4.40407046       1.31178408      17.17793281  F      -0.00403976       0.00348662       0.00729757
Ti       1.46793541       1.31179097      17.17788942  F       0.00403943       0.00349306       0.00749922
Ti       4.39933176       4.11076211      17.67267235  F       0.00250735       0.01719110       0.02511357
Ti       1.47260365       4.11077589      17.67267235  F      -0.00234089       0.01717932       0.02519423
Ti       2.93603523       6.27290779      18.81082062  F       0.00003051      -0.00478649       0.00335404
Ti       0.00003523       6.28358150      18.77167887  F      -0.00018142       0.00564574       0.00733698
Ti       2.93604110       2.39791815      19.43687160  F      -0.00005134      -0.00335446      -0.02048586
Ti       0.00006459       2.39740824      19.43656784  F      -0.00007265       0.00045390      -0.01362746
Ti       1.46533998       4.54092834      20.73301887  F       0.00766918      -0.01501338       0.00184986
Ti       4.40688315       4.54091456      20.73297548  F      -0.00763279      -0.01486253       0.00200048
Ti       4.42932006       0.43605778      20.94730041  F       0.00440863       0.00751284       0.00710652
Ti       1.44279738       0.43603022      20.94730041  F      -0.00444620       0.00759820       0.00708531
Ti       0.00012918       2.46248408      22.25364537  F      -0.00010933       0.00106951       0.00955393
Ti       2.93607046       2.46948504      22.24041007  F       0.00006985      -0.00677564       0.00390641
Al       0.00007046       5.93818476      22.85266164  F      -0.00012511      -0.00867430      -0.00627942
Ti       2.93607634       5.92866180      22.92148515  F      -0.00000301       0.00410735       0.00078027
Ti       4.38250848       3.91633389      24.15271441  F      -0.00662023      -0.00759148       0.00948105
Ti       1.48959722       3.91633389      24.15271441  F       0.00661177      -0.00747910       0.00953167
Ti       4.38820432       1.03499123      24.38031802  F      -0.01295404       0.00110901       0.01107512
Ti       1.48399533       1.03499812      24.38031802  F       0.01294100       0.00110223       0.01105479
Ti       0.00005872       5.81185052      25.66375074  F      -0.00009191      -0.03268546      -0.01000066
Ti       2.93605285       5.81679805      25.76368804  F       0.00002446      -0.01171779      -0.02787125
Ti       2.93602936       2.76575792      26.27739092  F       0.00001722       0.02355408       0.00625256
Ti       0.00004110       2.82674069      26.23508138  F      -0.00002438       0.00745838       0.01063855
Ti       4.43592606       0.66750288      27.45081884  F       0.00139841      -0.02354102       0.00618951
Ti       1.43604458       0.66748910      27.45081884  F      -0.00128307      -0.02349138       0.00621948
Ti       1.44910390       4.71528392      27.92728933  F       0.00818588      -0.00186224      -0.01781116
Ti       4.42294307       4.71528392      27.92728933  F      -0.00823936      -0.00178205      -0.01764985
Ti       2.93597064       2.57618766      29.11642601  F       0.00015676      -0.03349182      -0.01713276
Ti       5.87197064       2.57194987      29.09485900  F      -0.00003623      -0.03287101      -0.02069092
Ti       2.93598238       6.53124044      29.67968530  F       0.00019512       0.03022303       0.03814071
Ti       5.87198238       6.54197616      29.70442011  F      -0.00009530       0.03687284       0.02080554
Ti       4.40385320       4.37980291      30.88105921  F      -0.00721247       0.00430393       0.04451218
Ti       1.46814680       4.37979602      30.88105921  F       0.00714506       0.00416170       0.04454510
Ti       4.40480446       1.55954638      31.36121822  F       0.01006236       0.00260527      -0.00462446
Ti       1.46712507       1.55954638      31.36121822  F      -0.00988988       0.00239428      -0.00508776
Ti       2.93594715       6.32050191      32.50947739  F       0.00033554      -0.08927427       0.74468930
Ti       0.00002349       6.32469146      32.52154103  F      -0.00021471      -0.07836375       0.75694681
Ti       5.87197651       3.27992877      33.12476656  F      -0.00019577       0.29115848       0.25226453
Ti       2.93606459       3.28155498      33.12363830  F       0.00016566       0.28668314       0.23325415
Ti       1.46856371       1.15324956      34.43766407  F       0.00936411       0.06370181      -0.75140273
Ti       4.40360658       1.15326334      34.43766407  F      -0.00950600       0.06392573      -0.75128120
