52
Lattice="4.6568 0.0 0.0 0.0 7.770572 0.0 0.0 0.0 41.044546" Properties=species:S:1:pos:R:3:move_mask:L:1:forces:R:3 job_name=BondOrder-VacuumGB-CSL7-Al-Al-31-d-3.01 top_level=BondOrder-VacuumGB solute=Al energy=-388.23026678 stress_kbar_3x3="_JSON [[-22.3780384, -0.0582629, -0.95767576], [-0.05826288, -26.13448662, -0.1375879], [-0.95767579, -0.1375879, -19.03510464]]" pbc="T T T"
Ti       1.81821031       7.39432867       8.22425986  F       1.06013892      -0.12831501       0.84335280
Ti       4.62806754       5.59860388       8.88199871  F      -0.10138599      -0.08753919      -0.01517464
Ti       2.45560515       2.27386363       9.13380700  F      -0.59883220       0.30679310       0.65635314
Ti       4.56276989       0.62234511       9.59367009  F      -0.29430748      -0.37294348       0.25210344
Ti       2.35431509       5.00777621      10.34236366  F      -0.06942087       0.01385711      -0.39205377
Ti       0.02089506       3.33593764      10.53042977  F       0.01491342       0.28095505       0.07522196
Ti       2.30722553       0.01014837      11.16875455  F      -0.04131419       0.17504439      -0.47388932
Ti       0.02784301       6.10342686      11.60333420  F      -0.00682179      -0.01985324      -0.23586563
Ti       2.33633519       2.76281133      12.11708878  F       0.02065016      -0.07515612      -0.20318508
Ti       4.65598040       1.11745488      12.51255298  F      -0.03902239      -0.08684023       0.09562387
Ti       2.34669191       5.56675230      13.13109429  F       0.03483901       0.03445538      -0.04663490
Ti       0.00942536       3.87381664      13.46252900  F       0.00057818       0.00714242      -0.02318198
Ti       2.33286587       0.56482734      14.10257765  F      -0.00275230      -0.01076087      -0.00358069
Ti       0.01450128       6.63687663      14.42449002  F       0.02393858       0.02175526      -0.04028450
Ti       2.33102644       3.32464700      15.04927010  F       0.02579344      -0.02278535      -0.01918957
Ti       0.00924840       1.68213457      15.44444699  F       0.00244560      -0.04642200      -0.01895100
Ti       2.35428249       6.10090919      15.95701128  F      -0.00953413      -0.00148767      -0.02186331
Ti       4.63585371       4.42459478      16.39938940  F      -0.01277050       0.01082985      -0.00545618
Ti       2.34403288       1.10663824      17.04247535  F       0.00912382       0.00278165      -0.01706399
Ti       0.01995904       7.19882108      17.19577672  F       0.00904890      -0.01170316       0.02821948
Ti       2.24327835       3.80663227      17.98099993  F      -0.00176268      -0.01216014       0.02577022
Ti       0.13051613       2.16354482      18.45843009  F      -0.00332506      -0.01042724      -0.00361885
Ti       2.29945799       6.60256955      18.68396987  F      -0.01191161      -0.02916361       0.02364235
Ti       4.14457528       4.80229120      19.33473115  F       0.01361024      -0.00947139       0.02163642
Ti       2.71175709       1.61295317      20.06392855  F       0.02005100      -0.01746427       0.00196620
Ti       0.34921343       7.60745215      19.98947375  F      -0.00385022      -0.00204654      -0.01296056
Ti       1.25692620       4.80669712      20.79870802  F      -0.01451844       0.00409957      -0.00584767
Ti       3.11265634       6.61610589      21.40555163  F       0.00126085       0.00199031      -0.00747496
Ti       0.64183743       2.12187901      21.67734861  F      -0.01982842       0.00277634       0.00697070
Ti       3.22700407       3.80477510      22.14065945  F       0.01167424      -0.00306252      -0.01169544
Ti       0.70088100       7.26135865      22.89185673  F      -0.00530893       0.01523277       0.00551409
Al       3.01637700       1.13731646      23.05180733  F       0.00522809       0.00398368      -0.00582543
Ti       0.78346935       4.52976170      23.70663201  F       0.00263619       0.01217303      -0.00860363
Ti       3.06431876       6.17794665      24.12742070  F       0.00074346       0.01617211      -0.00054390
Ti       0.70081115       1.71282833      24.58810468  F      -0.00386255      -0.00820817       0.00480785
Ti       3.10768754       3.35400422      24.99341957  F      -0.01621027       0.00194146       0.00797980
Ti       0.73132250       6.62480893      25.67672918  F      -0.00916666      -0.00605086       0.00857901
Ti       3.08873436       0.56872816      25.96346637  F       0.00754307       0.01329087      -0.02078603
Ti       0.75365186       3.85292934      26.60244787  F       0.00994034       0.03661999       0.03443627
Ti       3.06825841       5.55437378      26.94455416  F      -0.04554610       0.00708763      -0.00097928
Ti       0.74638259       1.10893056      27.56769245  F       0.08695890       0.03124475      -0.01043901
Ti       3.07584900       2.75681245      27.95474252  F      -0.01281123      -0.01012436       0.00582588
Ti       0.72261428       6.08534474      28.47818362  F       0.01813359      -0.06173385       0.08951609
Ti       3.10133101       7.76544342      28.90118871  F       0.02837634       0.01632213       0.23360997
Ti       0.72980904       3.33111212      29.54603957  F      -0.01983068      -0.01284592       0.29679868
Ti       3.05208069       4.99706836      29.73381837  F       0.07754875       0.24448836       0.44737643
Ti       0.84727682       0.61994400      30.47241497  F      -0.20797383       0.13499759       0.07820697
Ti       2.95141930       2.26842423      30.94758768  F       0.37033368       0.14933495      -0.22003770
Ti       0.78054953       5.59350638      31.19344451  F      -0.09214446      -0.23869801       0.26718517
Ti       3.59144058       7.38867947      31.84400057  F      -1.26917975      -0.15342934      -0.15577879
Ti       0.37582239       2.79596836      32.55875029  F       0.33774552      -0.15592879      -1.27645561
Ti       2.70525620       4.56429412      32.56289579  F       0.72013845       0.04925159      -0.25327536
