52
Lattice="5.088765 0.0 0.0 0.0 5.495746 0.0 0.0 0.0 48.722931" Properties=species:S:1:pos:R:3:move_mask:L:1:forces:R:3 job_name=BondOrder-VacuumGB-C1-Al-Al-30-d-2.59 top_level=BondOrder-VacuumGB solute=Al energy=-391.07832412 stress_kbar_3x3="_JSON [[-35.18940794, 0.14287759, 0.78917368], [0.1428776, -24.59766714, -1.0763055], [0.78917365, -1.07630551, -23.47064881]]" pbc="T T T"
Ti       2.62401149       0.79473433      40.71083478  F       0.10247466      -0.01913683      -1.70392413
Ti       0.03740242       1.60261449       9.37697169  F       0.05583051       0.58608418       0.00810736
Ti       0.82186099       4.35025117       9.37916422  F       0.05902254      -0.57963440       0.34972860
Ti       2.56746514       2.35867526      10.59509368  F      -0.23521757       0.39702361      -0.51360532
Ti       3.36636053       5.10587778      10.59046501  F       0.21177281      -0.33325826      -0.66221149
Ti       0.81192772       0.38660375      11.84045180  F      -0.02630103      -0.01849363      -0.36854337
Ti       0.03550940       3.13608700      11.83387420  F       0.05392220      -0.04041604      -0.22940451
Ti       3.37472137       1.18405298      13.08220442  F      -0.07089792       0.02540072       0.02584509
Ti       2.57165828       3.93145884      13.08186336  F       0.05198738      -0.03468583       0.02610928
Ti       0.01233008       4.70543574      14.33082697  F      -0.02820407      -0.00675729       0.01538015
Ti       0.83729013       1.95998637      14.32415193  F       0.04036887       0.03577954       0.04480039
Ti       3.37574422       2.73799165      15.57896230  F      -0.00255515       0.01832466      -0.01945326
Ti       2.56457472       5.48604601      15.56697645  F       0.00403950       0.01888045      -0.00827152
Ti       0.83572788       3.54439895      16.82734123  F      -0.01579081      -0.00166128       0.01443612
Ti       0.03195744       0.79326697      16.82173810  F      -0.00075898      -0.00549427       0.00748103
Ti       2.56013732       1.58273638      18.07830249  F       0.01230608      -0.00002584       0.00885713
Ti       3.38111795       4.33944654      18.06729110  F      -0.00332535       0.00906457       0.00365728
Ti       0.82422727       5.10987319      19.32531718  F      -0.00008449       0.00736852      -0.00343686
Ti       0.01398901       2.35704302      19.30499972  F      -0.00472727       0.00216977      -0.00253758
Ti       3.36424361       0.41509919      20.57023679  F      -0.00508263       0.00287056       0.00341397
Ti       2.58845629       3.15687741      20.54226983  F       0.00597024      -0.00509456      -0.00398382
Ti       0.03730065       3.94207113      21.82153911  F       0.00198695       0.00739505       0.00239386
Ti       0.81248240       1.21110304      21.79776232  F       0.00271912       0.01019689      -0.00097748
Ti       2.52228199       4.74605480      23.00282657  F      -0.00525361       0.01417542      -0.00257400
Ti       3.35901745       2.01607595      23.04146385  F      -0.00381878       0.00602708      -0.00308386
Ti       0.76319771       2.76396454      24.43518329  F       0.00492240      -0.01634008      -0.00490950
Ti       0.03946337       5.46629430      24.33759126  F      -0.01090097       0.00174568      -0.01220159
Ti       3.35102808       1.86236543      25.76147020  F       0.00331715      -0.01433197      -0.00762122
Ti       2.58406469       4.59616932      25.72536651  F      -0.00618983       0.00587149      -0.01745994
Ti       5.05625797       3.89627508      26.97262482  F      -0.01322512      -0.00714980       0.01303973
Al       0.79940427       1.13764140      26.88667757  F      -0.00110255       0.00338719       0.01112817
Ti       3.31913679       0.39582561      28.15907691  F      -0.00801985      -0.00609263       0.02394621
Ti       2.49954539       3.10421717      28.16263368  F      -0.00246989      -0.01445662       0.01000634
Ti       0.84384446       5.08103701      29.38791795  F       0.00056955       0.00666712       0.01223004
Ti       0.02828844       2.32917410      29.38392267  F      -0.00077592      -0.00640132       0.01069749
Ti       2.57897084       1.55555442      30.68838171  F       0.00697577      -0.00607442      -0.00122592
Ti       3.40341692       4.30824719      30.62392127  F       0.00361624      -0.00489965      -0.00745653
Ti       0.02500110       0.78493542      31.89778230  F       0.00438935      -0.01387363      -0.01852089
Ti       0.83304101       3.53578162      31.87639293  F      -0.00386250      -0.01656616      -0.02536078
Ti       3.38988080       2.74336649      33.14874355  F       0.00048458      -0.00048081      -0.00461962
Ti       2.58119463       5.47853882      33.14016832  F       0.00710658       0.01181769       0.00678955
Ti       0.85637808       1.95828268      34.38352879  F       0.03126035      -0.01326115      -0.02920390
Ti       0.03542289       4.70277031      34.38893704  F      -0.03255843       0.03550841      -0.05351218
Ti       2.58154575       3.92654564      35.63790065  F       0.06258333       0.02629926      -0.01779456
Ti       3.38667997       1.18066760      35.62991009  F      -0.06491350      -0.04418741      -0.01950735
Ti       0.82529082       0.38772488      36.87999433  F      -0.03522871      -0.04228681       0.26120743
Ti       0.04706599       3.13244882      36.87234483  F       0.03346990      -0.01469602       0.39925888
Ti       2.58329629       2.35937872      38.12067505  F      -0.21314239      -0.34317429       0.67902690
Ti       3.37846670       5.10566344      38.12247779  F       0.25068159       0.40206589       0.52715765
Ti       0.82252762       4.34804188      39.33806620  F      -0.07076265       0.58210528      -0.02730205
Ti       0.03700550       1.60270242      39.33660451  F      -0.04591980      -0.58157336      -0.37468900
Ti       3.31571714       3.54290410       8.00508012  F      -0.10068791      -0.02572468       1.67869359
