64
Lattice="5.872 0.0 0.0 0.0 6.890708 0.0 0.0 0.0 43.394398" Properties=species:S:1:pos:R:3:move_mask:L:1:forces:R:3 job_name=BondOrder-VacuumGB-T1g-V-V-47-d-6.48 top_level=BondOrder-VacuumGB solute=V energy=-484.97849047 stress_kbar_3x3="_JSON [[-18.91010791, 0.00130757, -0.00036435], [0.00130755, -22.42517854, -2.648183], [-0.00036438, -2.648183, -22.26056858]]" pbc="T T T"
Ti       4.40401762       4.99282786       8.22427989  F       0.00019405      -0.09856893       1.11455485
Ti       1.46802936       4.99178047       8.22566851  F      -0.00018967      -0.09522116       1.11004475
Ti       0.00011744       2.86390917       9.37744262  F      -0.00022902       0.41792883      -0.13223240
Ti       2.93592954       2.86390228       9.37752941  F       0.00028402       0.41787462      -0.13226832
Ti       5.87134234       6.72701234       9.99351289  F       0.00411402      -0.51189977      -0.16199223
Ti       2.93669877       6.72700545       9.99351289  F      -0.00409461      -0.51120487      -0.16166957
Ti       4.40400000       1.77583881      11.52203716  F      -0.00019069       0.03433943      -0.14190868
Ti       1.46806459       1.77486033      11.52064854  F       0.00016321       0.03551623      -0.13671320
Ti       1.46807634       4.59768710      11.30844994  F       0.00002653       0.34565416      -0.23064805
Ti       4.40399413       4.59926507      11.30784241  F       0.00000054       0.33805490      -0.22876079
Ti       0.00007046       6.64395175      12.81848820  F      -0.00186728      -0.15857576      -0.07546500
Ti       2.93600000       6.64399998      12.81848820  F       0.00189220      -0.15899451      -0.07528097
Ti       2.93446154       3.20054782      13.44089405  F       0.00181982       0.01331053      -0.11628029
Ti       0.00161480       3.20052714      13.44089405  F      -0.00187403       0.01323125      -0.11636266
Ti       4.40407634       5.22887595      14.73617343  F      -0.00010245      -0.02701766       0.00854748
Ti       1.46797064       5.22937208      14.73634701  F       0.00015894      -0.02526869       0.00632551
Ti       4.40402936       1.16622477      14.95045497  F       0.00005677      -0.01211394       0.02404174
Ti       1.46801174       1.16572174      14.95097570  F       0.00000353      -0.01188031       0.02256874
Ti       2.93548326       3.30233046      16.26582596  F       0.00169058       0.02397883      -0.01550297
Ti       0.00056371       3.30237870      16.26582596  F      -0.00174011       0.02365854      -0.01543626
Ti       2.93602936       6.34328948      16.87538707  F       0.00129821       0.00574685      -0.03259156
Ti       0.00001174       6.34330327      16.87543047  F      -0.00130469       0.00581218      -0.03254606
Ti       4.40397064       1.59085776      18.03349677  F       0.00031826       0.01678347       0.02881371
Ti       1.46805285       1.59003087      18.03475520  F      -0.00038159       0.01791327       0.03038707
Ti       4.40402936       4.41079732      18.51430670  F      -0.00002853       0.00342355       0.00308315
Ti       1.46800587       4.40988085      18.51300486  F       0.00001944       0.00369312       0.00382002
Ti       2.93705109       6.58730324      19.70057935  F      -0.00086452       0.00626969      -0.00029956
Ti       5.87092542       6.58730324      19.70062275  F       0.00102726       0.00645563      -0.00042010
Ti       2.93678685       2.61363176      20.30146158  F      -0.00085607       0.00225469      -0.01025643
Ti       5.87124251       2.61361798      20.30150498  F       0.00081182       0.00222607      -0.01048858
Ti       1.46795890       4.79122641      21.46282586  F       0.00024225      -0.00081056       0.00741227
Ti       4.40402349       4.79277682      21.46733887  F      -0.00020977      -0.00192125       0.00913352
Ti       4.40400587       0.72385509      21.97670232  F       0.00000245       0.01233008       0.01127997
Ti       1.46802936       0.72833405      21.97336095  F      -0.00007454       0.00601332       0.00906565
Ti       5.87189430       2.89746003      23.14644171  F      -0.00276873       0.00139899       0.01056989
Ti       2.93609982       2.89746003      23.14639832  F       0.00271777       0.00119812       0.01065354
Ti       0.00199061       5.83761488      23.73530369  F      -0.00125402       0.00564116       0.01223981
Ti       2.93400352       5.83753219      23.73534709  F       0.00116327       0.00601732       0.01186314
Ti       4.40391192       3.94789333      25.36116160  F       0.00044893       0.00351634      -0.03169502
Ti       1.46802936       3.95367464      25.38880383  F      -0.00027733      -0.01488123      -0.03624797
Ti       4.40397651       1.10454604      24.97642687  F      -0.00001015       0.00762360      -0.00689703
Ti       1.46797064       1.12450842      24.94583382  F       0.00006138      -0.00638440      -0.00118320
Ti       0.05678224       6.06548370      26.58731371  F      -0.00114157       0.01056956       0.02447893
Ti       2.87920602       6.06547681      26.58731371  F       0.00105607       0.01072860       0.02456552
Ti       2.90581792       2.30838718      27.14779576  F      -0.00923542      -0.03135143      -0.01709099
Ti       0.03012336       2.30842852      27.14788254  F       0.00920606      -0.03126218      -0.01790740
Ti       4.40396477       0.35808942      28.52617541  F       0.00006624       0.01319318      -0.01737533
V        1.46801762       0.46878865      28.53199026  F      -0.00011421       0.02446288       0.01161204
Ti       1.46798238       4.46363527      28.57000376  F      -0.00015013       0.07274422      -0.01716440
Ti       4.40395890       4.38064358      28.56353799  F       0.00017856       0.07507636      -0.01866523
Ti       2.91293478       2.32535210      29.95276625  F       0.00017372      -0.07031159       0.07151648
Ti       0.02311219       2.32532454      29.95272285  F      -0.00021904      -0.07002486       0.07197334
Ti       2.88253544       6.16107160      30.51329169  F      -0.00686791       0.12061485       0.10196151
Ti       0.05338235       6.16107160      30.51329169  F       0.00697436       0.12067413       0.10202825
Ti       4.40402349       4.05342453      31.70342645  F       0.00002087       0.03852517       0.24339929
Ti       1.46802349       4.04949682      31.68329145  F      -0.00009003       0.02662867       0.22420637
Ti       4.40400000       1.22650468      32.15047553  F       0.00004419      -0.36392225       0.32290649
Ti       1.46797651       1.24277364      32.17616502  F      -0.00000033      -0.34332687       0.34625992
Ti       2.93407986       5.97857120      33.35341164  F      -0.00352084       0.45876099       0.04093407
Ti       0.00202584       5.97859876      33.35336825  F       0.00334193       0.45878277       0.04119844
Ti       5.86990957       3.06334004      33.94761113  F      -0.08464151      -0.41169437       0.11114640
Ti       2.93811979       3.06336071      33.94761113  F       0.08465320      -0.41205591       0.11092899
Ti       1.46806459       0.91337024      35.13614030  F      -0.00023661       0.04868160      -1.15454748
Ti       4.40404110       0.90973883      35.13323288  F       0.00030495       0.11138477      -1.13762312
