52
Lattice="5.088765 0.0 0.0 0.0 5.495746 0.0 0.0 0.0 48.722931" Properties=species:S:1:pos:R:3:move_mask:L:1:forces:R:3 job_name=BondOrder-VacuumGB-C1-V-V-26-d-0.00 top_level=BondOrder-VacuumGB solute=V energy=-394.671538 stress_kbar_3x3="_JSON [[-37.73918842, 0.3041735, -0.29593261], [0.30417351, -26.94296756, -0.00868178], [-0.29593261, -0.00868176, -24.43574422]]" pbc="T T T"
Ti       2.62245433       0.79708102       8.00035399  F       0.09540646      -0.02937275       1.70388131
Ti       0.02842584       1.60136696       9.38101569  F      -0.05613395      -0.57826032       0.34278419
Ti       0.81637530       4.34870687       9.38145420  F      -0.07290166       0.58558434      -0.01116837
Ti       2.57037591       2.35771900      10.59421667  F      -0.20091628      -0.34413562      -0.67585952
Ti       3.36714929       5.10406418      10.59650665  F       0.24672497       0.41008142      -0.52896709
Ti       0.80997364       0.38801066      11.83796693  F      -0.05020919      -0.04116016      -0.22980339
Ti       0.03664929       3.13485595      11.84196221  F       0.02502796      -0.02093677      -0.36009633
Ti       3.36772432       1.18438822      13.08522524  F      -0.05852703      -0.04435201       0.03694700
Ti       2.56105838       3.93185454      13.08322760  F       0.07190785       0.02716347       0.03360284
Ti       0.01184156       4.70192946      14.32697786  F      -0.03998430       0.04038795       0.05074467
Ti       0.83618078       1.95249566      14.33340929  F       0.03133319      -0.01210695       0.02505704
Ti       3.36742408       2.73705188      15.56824325  F      -0.00936317       0.01651855      -0.01751765
Ti       2.56705804       5.48336408      15.58222673  F      -0.00238642       0.01482997      -0.02290838
Ti       0.81519471       3.54423407      16.83196991  F       0.00320544      -0.00857224       0.00247996
Ti       0.00812167       0.79719093      16.83616008  F       0.01676203      -0.00804049       0.00704612
Ti       2.55023458       1.57792760      18.06003139  F       0.00513465      -0.00240083       0.00412000
Ti       3.38156067       4.31874406      18.07781526  F      -0.01104619      -0.00634802       0.01652224
Ti       0.82664443       5.08896737      19.31372113  F      -0.00000746      -0.00214378      -0.00018358
Ti       0.03018147       2.33986332      19.34037257  F      -0.00765422       0.00144230      -0.00191217
Ti       3.33337007       0.41201608      20.54631383  F       0.00820891       0.00445389      -0.00593218
Ti       2.57275236       3.16066398      20.57574248  F       0.00479773      -0.00394228      -0.00343133
Ti       0.03199815       3.92652916      21.83562003  F       0.00469433       0.00489663      -0.00544189
Ti       0.80603493       1.15884399      21.86270998  F      -0.00598273       0.00282326      -0.00461153
Ti       2.60969171       4.70374305      23.01797940  F       0.00169457      -0.00650858       0.00246741
Ti       3.39674555       1.94281216      22.98679672  F      -0.00286813      -0.00705949       0.00444799
Ti       0.74963106       2.69636137      24.36136805  F       0.00303152       0.00468994      -0.00243532
V        0.11309780       5.39927367      24.36297591  F      -0.00394631       0.00839113       0.00220805
Ti       3.39731040       1.94372995      25.73584194  F      -0.00323402      -0.00672206      -0.00238202
Ti       2.60870958       4.70457291      25.70558500  F       0.00320153      -0.00595185      -0.00499089
Ti       0.03289887       3.92765579      26.88677501  F       0.00539505       0.00197786       0.00434286
Ti       0.80599931       1.16015198      26.86036719  F      -0.00192423       0.00466839       0.00573402
Ti       3.33379244       0.41229086      28.17651972  F       0.00682152       0.00615321       0.00293060
Ti       2.57339355       3.16096075      28.14738341  F       0.00457518      -0.00484577       0.00689784
Ti       0.82699047       5.08913774      29.40882009  F       0.00373076       0.00155804       0.00156937
Ti       0.03027815       2.34006666      29.38270460  F      -0.00459520       0.00061422      -0.00084001
Ti       2.55054499       1.57835627      30.66250983  F       0.00965842      -0.00691908      -0.00991186
Ti       3.38177949       4.31941454      30.64506702  F      -0.00559625      -0.00254096      -0.01204439
Ti       0.00847788       0.79746022      31.88677092  F       0.00545341      -0.01204444      -0.00695515
Ti       0.81534737       3.54448138      31.89076620  F      -0.00674510      -0.00487017      -0.00383626
Ti       3.36735793       2.73768938      33.15449286  F      -0.00477404       0.02217148       0.02348803
Ti       2.56701224       5.48393015      33.14080171  F       0.00313934       0.00836351       0.01854194
Ti       0.83619604       1.95299028      34.38981405  F       0.03618828       0.03820303      -0.05679722
Ti       0.01194842       4.70195693      34.39595314  F      -0.03441383      -0.00963687      -0.01951595
Ti       2.56128229       3.93214581      35.63980084  F       0.05908307      -0.03581035      -0.03380792
Ti       3.36766326       1.18452012      35.63741342  F      -0.07147162       0.01905206      -0.03255894
Ti       0.80970393       0.38794471      36.88481790  F      -0.03180531      -0.02196223       0.35945106
Ti       0.03647118       3.13493839      36.88121240  F       0.04300478      -0.04059627       0.22832814
Ti       2.57016218       2.35752115      38.12851944  F      -0.24843888       0.40377252       0.53176605
Ti       3.36698645       5.10403670      38.12657052  F       0.19845674      -0.33697943       0.67023946
Ti       0.81686382       4.34930041      39.34103830  F       0.06180441      -0.57919441      -0.34555549
Ti       0.02882276       1.60174616      39.34206148  F       0.07492221       0.58553271       0.01413479
Ti       3.31425158       3.54334376      40.72223595  F      -0.09843876      -0.02991572      -1.70026817
