52
Lattice="5.088765 0.0 0.0 0.0 5.495746 0.0 0.0 0.0 48.722931" Properties=species:S:1:pos:R:3:move_mask:L:1:forces:R:3 job_name=BondOrder-VacuumGB-C1-Al-Al-27-d-1.38 top_level=BondOrder-VacuumGB solute=Al energy=-391.17956995 stress_kbar_3x3="_JSON [[-33.87052663, -0.93308344, 0.86111754], [-0.93308341, -24.85059339, -3.26402118], [0.86111757, -3.26402119, -21.95129935]]" pbc="T T T"
Ti       2.63009257       0.73745217      40.61319403  F       0.08519344      -0.07622636      -1.32639596
Ti       0.13512707       1.69856472       9.34983301  F      -0.21083828       0.61412995       0.19182171
Ti       0.81523542       4.45219177       9.39836105  F       0.21055673      -0.73176837       0.29567854
Ti       2.52735549       2.44479910      10.64381661  F      -0.08463259       0.35283593      -0.50510710
Ti       3.35612194       5.20308104      10.57511728  F       0.24016933      -0.25501388      -0.62550670
Ti       0.77028636       0.46190646      11.85112212  F      -0.02335378      -0.01579763      -0.42215337
Ti       5.08429198       3.20865283      11.80639447  F       0.04888168      -0.00063649      -0.18970012
Ti       3.35299235       1.27728831      13.10744290  F      -0.06925141      -0.00049583       0.04384578
Ti       2.56766869       4.02615604      13.06978007  F       0.04861793      -0.01422177       0.04625310
Ti       5.06886284       4.80183113      14.35353186  F      -0.03480236       0.01197485      -0.00925110
Ti       0.80551079       2.07381975      14.30831698  F       0.03834910       0.03138017       0.01451598
Ti       3.32206283       2.84385071      15.59806168  F       0.00275715       0.02507150      -0.04408752
Ti       2.51651642       0.09551607      15.56035014  F       0.00915903       0.02628822      -0.02767159
Ti       0.81049778       3.66825108      16.84371214  F      -0.00430247      -0.00007222       0.02661824
Ti       0.01216215       0.91878431      16.80673143  F      -0.00708161      -0.00683351       0.01517326
Ti       2.52126424       1.69883951      18.10383330  F       0.00546015       0.00281767       0.01490747
Ti       3.35119092       4.46831629      18.04424516  F      -0.00359617       0.01334618       0.01753077
Ti       0.75397178       5.24921783      19.33457454  F      -0.00432086       0.01195276      -0.00754599
Ti       5.05010056       2.49725050      19.29506024  F      -0.00008430       0.00665835      -0.00178598
Ti       3.33577197       0.57928460      20.61467211  F       0.00362293       0.00674217      -0.01463507
Ti       2.56978053       3.32564627      20.52229343  F       0.01027208       0.00059720      -0.01923664
Ti       0.00623374       4.10051348      21.84575440  F      -0.00192918       0.01319876      -0.02270505
Ti       0.80648783       1.38514233      21.77530105  F      -0.00449632       0.00494535      -0.01040830
Ti       2.45180260       4.90487636      23.02168234  F       0.00292493       0.01978665       0.01575631
Ti       3.25586309       2.19577036      23.04117152  F       0.01800823       0.01478167      -0.01115873
Ti       0.77350755       2.87013686      24.49267635  F      -0.00715959      -0.00502418       0.02018780
Ti       0.03718361       0.14244424      24.18372425  F      -0.00563709       0.00650087       0.02224602
Al       3.35496170       1.72004210      25.73944743  F      -0.01158039       0.01424285       0.02275024
Ti       2.89112077       4.46010564      25.63060041  F      -0.00297150      -0.01595861       0.00860291
Ti       4.99346261       3.63591411      27.11094922  F       0.01038415      -0.02903969      -0.01407388
Ti       0.83239982       0.81046316      26.85710275  F      -0.00175157      -0.01565428      -0.02317804
Ti       3.41638818       0.27559517      28.17564271  F       0.00045856      -0.01086583      -0.00843709
Ti       2.43991524       3.03373423      28.04316506  F       0.00664262      -0.01410810      -0.02265975
Ti       0.89350571       4.95939966      29.44575207  F      -0.00101801       0.00000627       0.00458513
Ti       0.13201274       2.18841155      29.42338825  F      -0.01448713      -0.00694527       0.00700790
Ti       2.59214565       1.41834762      30.69929564  F       0.00959252      -0.01681596       0.02327977
Ti       3.42680997       4.13625232      30.57159284  F      -0.00539171       0.00516163       0.01296411
Ti       0.02140335       0.66039082      31.89213044  F       0.00483884      -0.01277456       0.01077556
Ti       0.85945679       3.42966975      31.92233866  F       0.00057814      -0.00992898       0.01403629
Ti       3.43117104       2.63120930      33.15483392  F      -0.00110659       0.00853565       0.00465388
Ti       2.62360439       5.36959665      33.11546579  F       0.00382072      -0.00467883       0.01058029
Ti       0.87540498       1.83827758      34.37997202  F       0.02985402      -0.01533105      -0.04751199
Ti       0.05916707       4.59893368      34.42455350  F      -0.04663004       0.01358314      -0.05970685
Ti       2.58158646       3.82757825      35.62284526  F       0.07339604       0.00980338      -0.04016638
Ti       3.39139726       1.07951290      35.65047117  F      -0.04762066      -0.04075413      -0.04793490
Ti       0.85884105       0.28986213      36.90854597  F      -0.04230426      -0.05861075       0.23980352
Ti       0.07867740       3.03672941      36.86108983  F       0.00981343      -0.02558843       0.39482379
Ti       2.61166106       2.27492009      38.14411078  F      -0.30234093      -0.28920951       0.55723459
Ti       3.39989549       5.01029027      38.10878665  F       0.20352950       0.29907461       0.38462058
Ti       0.80022865       4.23488447      39.36413297  F      -0.01636818       0.57565419      -0.13471914
Ti       0.01253872       1.49488688      39.32227997  F       0.04712783      -0.47632800      -0.37350778
Ti       3.29754516       3.50431847       8.06705569  F      -0.16895207       0.05961222       1.58899146
