64
Lattice="5.872 0.0 0.0 0.0 6.890708 0.0 0.0 0.0 43.394398" Properties=species:S:1:pos:R:3:move_mask:L:1:forces:R:3 job_name=BondOrder-VacuumGB-T1g-Al-Al-40-d-3.41 top_level=BondOrder-VacuumGB solute=Al energy=-482.02889592 stress_kbar_3x3="_JSON [[-17.14799039, -0.00015451, 0.00118876], [-0.00015452, -26.12575293, 0.28131552], [0.00118877, 0.28131552, -18.76104871]]" pbc="T T T"
Ti       4.40398238       5.21093944      34.64469874  F       0.00007525      -0.28933225      -0.47026866
Ti       1.46797651       5.20866551      34.64565342  F      -0.00000258      -0.28515742      -0.46594310
Ti       5.86952789       3.18711094       8.53988734  F       0.00930453       0.16372341       0.96891036
Ti       2.93850734       3.18708337       8.53993074  F      -0.00956155       0.16381795       0.96874283
Ti       0.00290664       6.63320224       9.16055742  F      -0.01451836      -0.20384946       0.15386501
Ti       2.93305226       6.63323670       9.16051402  F       0.01453025      -0.20393071       0.15402465
Ti       4.40400000       1.76767332      10.45318975  F       0.00006613       0.03496844      -0.50835295
Ti       1.46797064       1.76784559      10.45279920  F      -0.00007166       0.04088627      -0.51028177
Ti       1.46796477       4.59575081      10.66599587  F      -0.00004796       0.10907860      -0.34979502
Ti       4.40398826       4.59530980      10.66721092  F       0.00009371       0.11929388      -0.34767092
Ti       0.00098650       6.72437320      11.98375356  F      -0.00435969      -0.10268430       0.00898957
Ti       2.93494891       6.72436631      11.98371016  F       0.00444254      -0.10283055       0.00924026
Ti       2.93729771       2.87505833      12.59587494  F      -0.00081589      -0.07007304       0.10103651
Ti       5.87060834       2.87504455      12.59591833  F       0.00089719      -0.07001350       0.10102354
Ti       4.40395890       5.00496240      13.75480912  F       0.00003055       0.06242205      -0.08525154
Ti       1.46795302       5.00325350      13.75424500  F      -0.00002915       0.05407884      -0.08830034
Ti       4.40397064       0.93060390      14.23666052  F       0.00001135       0.00937290       0.03474363
Ti       1.46797064       0.93048675      14.23106264  F      -0.00007228       0.00843559       0.04024695
Ti       2.93507222       3.08579686      15.42171813  F       0.00062762      -0.03916664      -0.03346018
Ti       0.00089254       3.08581753      15.42176153  F      -0.00053493      -0.03917858      -0.03364690
Ti       2.93807869       6.01587060      16.02177587  F      -0.00078360      -0.00096869      -0.04099508
Ti       5.86982736       6.01585682      16.02186266  F       0.00089755      -0.00084616      -0.04133466
Ti       4.40399413       1.28048649      17.20943715  F      -0.00006696      -0.01012577       0.00825440
Ti       1.46799413       1.27216940      17.19863194  F       0.00001721      -0.00020756       0.00507547
Ti       4.40401174       4.10075680      17.69076781  F      -0.00016576       0.00088601       0.03123699
Ti       1.46798238       4.09804875      17.67588353  F       0.00018470       0.00465889       0.03242589
Ti       2.94785557       6.21592164      18.84835677  F      -0.00871490      -0.01109218      -0.00817129
Ti       5.86021490       6.21594920      18.84844356  F       0.00863555      -0.01115765      -0.00820045
Ti       2.92132000       2.38257254      19.45188606  F       0.00177093       0.00297023      -0.01015190
Ti       0.01465064       2.38256565      19.45188606  F      -0.00156067       0.00309544      -0.01040760
Ti       1.46803523       4.49122566      20.77168328  F       0.00004676      -0.00368517       0.00492442
Ti       4.40401762       4.48590603      20.81976427  F      -0.00001719      -0.02660659       0.00783450
Ti       4.40395302       0.45357396      20.96786935  F      -0.00007271      -0.01260207      -0.02073461
Ti       1.46814093       0.42520492      20.95849616  F      -0.00018165       0.00454642      -0.00934342
Ti       0.04967125       2.46012057      22.27712173  F      -0.00990967      -0.00065274       0.01852747
Ti       2.88651666       2.46021704      22.27720852  F       0.00976261      -0.00088968       0.01800224
Ti       5.81024418       5.98190630      22.89119586  F       0.01129707       0.00599760      -0.00981291
Ti       2.99786739       5.98180983      22.89128265  F      -0.01135694       0.00603141      -0.00984938
Ti       4.40425250       3.86940817      24.10459002  F       0.00004461      -0.00692183       0.00500361
Ti       1.46794715       3.99820928      24.08649455  F       0.00008865       0.00708423      -0.00716464
Al       4.40405285       1.08714700      24.37285419  F      -0.00018655       0.00082838       0.01013947
Ti       1.46802349       1.13970243      24.41993711  F       0.00011460       0.02045425       0.02222563
Ti       5.84389661       5.86758257      25.66132065  F      -0.00123642       0.00236596      -0.00577282
Ti       2.96416798       5.86756879      25.66136405  F       0.00130824       0.00258273      -0.00595495
Ti       2.91643450       2.81083694      26.23916046  F       0.00607624       0.02287332      -0.01364477
Ti       0.01971230       2.81077492      26.23924724  F      -0.00605675       0.02316231      -0.01380024
Ti       4.40400587       0.67908616      27.40950737  F       0.00003021      -0.01329073      -0.00038478
Ti       1.46807634       0.67476569      27.46422771  F      -0.00008557      -0.00958124       0.02824319
Ti       1.46802936       4.73683806      27.89092482  F       0.00005506       0.01129346      -0.02665198
Ti       4.40403523       4.74150996      27.87230862  F       0.00009220       0.01270830      -0.02943860
Ti       2.94324018       2.58129367      29.07758803  F       0.00418573      -0.02085719      -0.02018835
Ti       5.86484203       2.58130745      29.07763142  F      -0.00425865      -0.02088454      -0.02025784
Ti       2.94410923       6.53237051      29.67543265  F       0.00389834       0.02968249       0.02570422
Ti       5.86393187       6.53237051      29.67543265  F      -0.00391889       0.02961450       0.02558257
Ti       4.40399413       4.37663319      30.86361466  F       0.00005212       0.02605708       0.02938285
Ti       1.46801174       4.37167188      30.87272749  F      -0.00014943       0.02166053       0.03858586
Ti       4.40402936       1.55472977      31.34381707  F      -0.00006667       0.00614142      -0.02029696
Ti       1.46801174       1.55202173      31.33856635  F       0.00007573       0.01067980      -0.03143809
Ti       2.93424427       6.31848983      32.50275126  F       0.00691757      -0.07460680       0.73394261
Ti       0.00173224       6.31846915      32.50270786  F      -0.00688286      -0.07456423       0.73422779
Ti       5.87133646       3.27484343      33.11257273  F       0.00468068       0.28381312       0.23196071
Ti       2.93664592       3.27482276      33.11257273  F      -0.00463046       0.28394665       0.23194836
Ti       1.46797064       1.14812977      34.42894180  F       0.00004520       0.05447494      -0.76963542
Ti       4.40398826       1.14848808      34.43111152  F      -0.00004034       0.06206983      -0.75744945
