100
Lattice="4.4265 -2.555641 0.0 3.767997 6.526363 -0.031456 0.0 0.0 61.781652" Properties=species:S:1:pos:R:3:move_mask:L:1:forces:R:3 job_name=BondOrder-VacuumGB-CSL13-Al-Al-58-d-4.19 top_level=BondOrder-VacuumGB solute=Al energy=-757.20998031 stress_kbar_3x3="_JSON [[-35.09251844, -2.76333382, 0.57188027], [-2.76333381, -36.82366284, 0.51891723], [0.57188025, 0.51891724, -24.40710895]]" pbc="T T T"
Ti       2.49866776      -0.86411842       8.02488997  F       0.11508502      -0.02501141       1.77736034
Ti       5.78786794       1.58805666       8.00909915  F      -0.07857201       0.08744824       1.77805160
Ti       5.01399962      -0.77402720       9.38975528  F       0.42111919      -0.01365513      -0.12771262
Ti       4.60829277       3.81118593       9.37396525  F      -0.22280812       0.35779627      -0.12780947
Ti       7.11970511       3.89286296      10.62197827  F      -0.14549018      -0.05424336      -1.01068143
Ti       3.82906833       1.44190018      10.63758236  F       0.02586629      -0.15355949      -1.00992938
Ti       1.68211445      -0.41161630      10.88742592  F       0.30612371      -0.25070664      -0.12870753
Ti       2.16159167       3.66260518      10.87151207  F      -0.37026845       0.13872606      -0.12777250
Ti       4.75700457       3.67216773      12.17076568  F       0.03164554      -0.12973641      -0.33546515
Ti       4.81931390      -0.71486307      12.18655599  F      -0.12852249      -0.03547237      -0.33644654
Ti       3.45610741       5.88573806      13.23949117  F      -0.08372946       0.03670756       0.04797260
Ti       2.96023915       1.82109308      13.25515748  F       0.07488325      -0.05325648       0.04795675
Ti       2.41549996      -0.93621265      13.76873187  F       0.03905174      -0.04105841       0.00670986
Ti       5.76694160       1.47967053      13.75318947  F      -0.05427391       0.01366922       0.00618652
Ti       4.27108727       3.77808415      14.95373363  F      -0.00196166       0.02302837      -0.03540067
Ti       5.15416964      -1.08262005      14.96927610  F       0.02121580       0.00947480      -0.03431208
Ti       6.92368681       3.59697916      15.83807551  F       0.00197604      -0.00277990      -0.01751121
Ti       3.67097284       1.12358212      15.85380512  F      -0.00289242       0.00123103      -0.01741703
Ti       6.37589493       0.88973098      16.61373844  F      -0.00304907       0.00013850      -0.00630563
Ti       1.60044572      -0.70379219      16.62946543  F       0.00054122      -0.00361291      -0.00603342
Ti       4.79206142       3.17831385      17.67852034  F      -0.00446693       0.00531857       0.00745148
Ti       4.37441513      -0.93191900      17.69437354  F       0.00680333      -0.00128126       0.00653428
Ti       3.17347586       5.40874889      18.46896552  F      -0.00117135      -0.00253735       0.00906922
Ti       2.68922098       1.33777309      18.48500117  F       0.00177595      -0.00128487       0.00961418
Ti       5.89451185       5.19605074      19.42828170  F       0.00354324      -0.01026777       0.00070229
Ti       5.57021803       1.03230370      19.44407174  F      -0.00804226      -0.00238187      -0.00191290
Ti       0.58866131       0.90941261      20.36594497  F      -0.00484132       0.00462539       0.00436388
Ti       3.85354767       3.37467677      20.35059005  F       0.00378582       0.00198553       0.00161078
Ti       3.30330542       0.64758478      21.17383992  F       0.00165990      -0.00179755       0.01167564
Ti       6.69602300       3.04023772      21.15693615  F      -0.00261104       0.00573499       0.01525763
Ti       5.08592697       5.35474740      22.26233146  F       0.00155229       0.00127538       0.01207274
Ti       6.11271523       0.41143135      22.27725482  F      -0.00235471      -0.00183840       0.00939916
Ti       4.53888517       2.63229918      22.96903766  F       0.00551214       0.00280420       0.00100077
Ti       4.02802465      -1.42357689      22.98371506  F      -0.00094192      -0.00773709       0.01046322
Ti       7.16456295       2.49381753      23.90202738  F       0.00026507       0.01246980       0.00345812
Ti       2.59769974       0.78307814      23.91916374  F      -0.00740104      -0.01276795       0.00152304
Ti       5.73076876       4.78060917      25.14023262  F      -0.00131057       0.00250150       0.00329983
Ti       5.28967259       0.68418487      25.14916530  F      -0.00613445      -0.00107682       0.00518961
Ti       3.60062781       2.92649655      25.57075457  F       0.00747507      -0.00011370      -0.00355205
Ti       0.32332514       0.46986284      25.58894616  F      -0.00345179      -0.00842721      -0.01270824
Ti       2.87298266       0.48792523      26.71855033  F      -0.00461222      -0.00153842       0.00737552
Ti       6.76401880       2.58373689      26.69821982  F       0.01160220       0.01267788      -0.00649377
Ti       4.90382536       5.17612626      28.01671177  F       0.00552585       0.00314223       0.00619501
Ti       1.61180126       2.72130898      28.02695769  F       0.00201648       0.00592153       0.01187950
Ti       4.36845115       2.39097167      28.21095615  F      -0.00708208      -0.00186254       0.00270889
Ti       3.89365656      -1.69290607      28.22312645  F      -0.00733514       0.00245932       0.00690919
Ti       6.86630511       2.46848553      29.48428122  F      -0.00149288       0.00637908       0.02328533
Ti       2.72197995       0.52236497      29.50775011  F       0.00571216      -0.00287414       0.02986502
Ti       3.55343372       2.82199856      30.90070146  F       0.00057480      -0.01936108      -0.01098693
Ti       0.26523765       0.37621391      30.89873575  F       0.00822493      -0.00665543       0.01367037
Ti       5.70997364       4.69603377      30.89072366  F       0.01526007       0.02869636       0.00909864
Ti       5.20416208       0.61170284      30.90419597  F      -0.01657688       0.00229693      -0.00230336
Ti       2.70444490       0.53683975      32.31268316  F      -0.02683372      -0.01663416      -0.05432746
Ti       6.85084399       2.43973314      32.25878428  F       0.01716323       0.02275526      -0.03094670
Ti       3.82103377      -1.72641334      33.49986113  F       0.00313056      -0.02437683      -0.02009230
Ti       4.38068673       2.42554565      33.55053203  F       0.01655772       0.01935895       0.01109916
Ti       1.56292482       2.69827410      33.82016134  F      -0.02135382       0.01020571       0.01655036
Ti       4.88704228       5.22064935      33.72298636  F      -0.01772975       0.00470680       0.00987857
Al       3.03529766       0.41621081      35.05195073  F       0.01673128      -0.00592784       0.03006904
Ti       6.77965401       2.60979563      35.04615337  F       0.01539859       0.01160983       0.01781538
Ti       0.37911690       0.57797695      36.11022493  F      -0.00853188       0.02220699       0.01501554
Ti       3.59460789       2.96255175      36.13542286  F       0.01167206      -0.00665627       0.01139624
Ti       5.32249611       0.81326952      36.68901029  F      -0.02893570       0.01299948       0.02429833
Ti       5.77399917       4.79944633      36.60291845  F       0.01787393       0.00579988       0.00839968
Ti       7.26384628       2.55411003      37.83855440  F      -0.00060779      -0.00787102      -0.01656268
Ti       2.64273348       0.82512611      37.80761847  F       0.00134715       0.01507609      -0.03982284
Ti       4.56283407       2.72508694      38.72161433  F       0.00921191       0.00731204      -0.02840865
Ti       4.06826454      -1.36425526      38.75435716  F       0.00939283      -0.00391822      -0.01068884
Ti       6.13408328       0.47020574      39.47515623  F       0.00492316       0.01276258      -0.00815207
Ti       5.15389547       5.42571429      39.46738177  F       0.01197586       0.00423874       0.00926922
Ti       3.36507583       0.71951089      40.56158368  F       0.01373638       0.01125643      -0.01514089
Ti       6.72631404       3.11013282      40.55649147  F       0.00001037       0.01783499      -0.01429990
Ti       3.90655252       3.44992332      41.34756680  F       0.00769350       0.00336311      -0.01005376
Ti       0.61924666       0.99946524      41.37786614  F       0.00406627       0.01202387      -0.00809373
Ti       5.93601546       5.27075853      42.30177851  F       0.00717876      -0.01018792       0.00242755
Ti       5.61909515       1.10814951      42.31798152  F      -0.00111351      -0.00799102       0.00278253
Ti       3.23253538       5.48349319      43.21916680  F       0.00241795       0.00754995       0.01100881
Ti       2.72965051       1.42015817      43.23354561  F      -0.00351107       0.00679642       0.02093012
Ti       4.81261081       3.26926162      44.03710517  F       0.00087250       0.01620806       0.01791563
Ti       4.44282709      -0.87116303      44.05778658  F       0.01591865       0.00969699       0.00279192
Ti       6.42290779       0.95215590      45.17309537  F      -0.00325829      -0.00041871      -0.00708015
Ti       1.63410046      -0.63442942      45.18653924  F       0.00751624      -0.00488139      -0.00147760
Ti       6.97807568       3.67507270      45.82686427  F      -0.00800411      -0.01187970      -0.01762991
Ti       3.71457952       1.21227777      45.84103351  F      -0.00249147      -0.01453517      -0.01617035
Ti       4.36686043       3.79577163      46.78523037  F       0.02135928       0.00910953      -0.00924340
Ti       5.12298983      -0.99174066      46.80275023  F      -0.00714522       0.02300698      -0.01242181
Ti       5.76905425       1.51592952      48.05935506  F       0.04943582      -0.02103378      -0.00154453
Ti       2.44757420      -0.91699965      48.07502011  F      -0.04289253       0.02695429      -0.00496918
Ti       3.47622305       5.92914589      48.42295458  F      -0.02260008      -0.07852102       0.01657155
Ti       2.98797521       1.85761253      48.43801207  F      -0.05004706      -0.05175040       0.01542615
Ti       4.71114823       3.71516765      49.58938129  F       0.01463348       0.02019842       0.38937053
Ti       4.88009162      -0.73289754      49.60473722  F       0.00996163       0.02292142       0.39639726
Ti       2.16511190       3.66313111      50.93183805  F       0.16861333      -0.02926048       0.46660121
Ti       1.68157309      -0.40812758      50.94799679  F      -0.10944665       0.12999066       0.46693687
Ti       7.12479035       3.89567019      51.06033467  F       0.48824340      -0.13524387       0.15966028
Ti       3.82933526       1.44740224      51.07674223  F      -0.36015455       0.35682359       0.15889945
Ti       4.63521994       3.79580486      52.37825738  F       0.14580115      -0.23195075       0.14117260
Ti       4.98724801      -0.75866917      52.39386298  F      -0.27280966       0.01175386       0.14311859
Ti       3.50556480       6.00131202      53.73752265  F       0.05007144      -0.08959879      -1.38360322
Ti       3.03582519       1.92212117      53.75331057  F      -0.10284437      -0.00149639      -1.38352168
