52
Lattice="4.6568 0.0 0.0 0.0 7.770572 0.0 0.0 0.0 41.044546" Properties=species:S:1:pos:R:3:move_mask:L:1:forces:R:3 job_name=BondOrder-VacuumGB-CSL7-V-V-24-d-0.00 top_level=BondOrder-VacuumGB solute=V energy=-390.75378858 stress_kbar_3x3="_JSON [[-23.83564772, 3.1222698, 1.0863184], [3.12226984, -28.20181826, -1.03642252], [1.08631839, -1.03642251, -23.91491036]]" pbc="T T T"
Ti       1.81487138       7.39546318       8.71178698  F       1.24790844      -0.79290813       0.09771030
Ti       4.62920380       5.59986271       9.37038776  F       0.21629535      -0.00325801      -0.09513783
Ti       2.45954946       2.27543329       9.61796846  F      -0.65937119       0.36654814       0.89822507
Ti       4.56689116       0.62243059      10.08792852  F      -0.02630326      -0.33962734       0.48587591
Ti       2.35377956       5.00703800      10.83333852  F       0.06707951      -0.01994768      -0.75370005
Ti       0.02371243       3.33321017      11.02308745  F      -0.01366459       0.00172475      -0.06980251
Ti       2.30818017       0.01009397      11.65977045  F      -0.07150696       0.22587850      -0.34155265
Ti       0.02813173       6.10069939      12.09857769  F       0.02910034       0.02290711      -0.21834174
Ti       2.33674964       2.75964871      12.61204496  F       0.01254903      -0.06096598      -0.09677032
Ti       0.00036789       1.11238846      13.01087481  F      -0.05996482      -0.02412878       0.05581987
Ti       2.34299441       5.56407146      13.62715867  F       0.01418001       0.03508363       0.05441564
Ti       0.00548105       3.86529232      13.96782840  F       0.00905077       0.00028745      -0.06174437
Ti       2.32816250       0.56122956      14.60340320  F      -0.00994742       0.00242680       0.01323553
Ti       0.01260596       6.62880300      14.92695736  F       0.01433183       0.01413284      -0.03428879
Ti       2.32399001       3.31633249      15.55719636  F      -0.00110390      -0.03679519       0.00237350
Ti       4.64757954       1.67169092      15.95188071  F      -0.01383723      -0.01660083      -0.01029502
Ti       2.34905291       6.09158451      16.45443014  F      -0.01158246       0.01069728      -0.01103206
Ti       4.61543830       4.40850192      16.91076340  F      -0.02235485       0.00062896       0.01027011
Ti       2.30608927       1.10887617      17.55380830  F      -0.00362614      -0.00891134      -0.01348925
Ti       0.00183012       7.18631046      17.71002384  F      -0.00139959       0.01003014       0.01275634
Ti       2.20704845       3.78962249      18.51306038  F      -0.01283135       0.01127463       0.01910272
Ti       0.04107298       2.17792038      18.98712489  F       0.00273029       0.01603532      -0.00813831
Ti       2.29258921       6.64612361      19.17006043  F      -0.01598268      -0.00329850       0.02515073
Ti       4.12511917       4.85169650      19.82307916  F       0.00481795       0.00131244      -0.01427233
V        2.70446454       1.68122542      20.52239613  F       0.00187966      -0.01196210      -0.00081697
Ti       0.37662336       7.70505831      20.52256031  F      -0.00061203      -0.02151149       0.00020206
Ti       1.28469004       4.85171981      21.22191833  F      -0.00674999       0.00697296      -0.00204031
Ti       3.11678227       6.64637227      21.87464975  F       0.00961426      -0.00270222      -0.01067927
Ti       0.71100488       2.17845655      22.05733902  F       0.00035829       0.01046656       0.01109379
Ti       3.20235097       3.78993331      22.53177293  F       0.01565475       0.00877418      -0.00853242
Ti       0.75007078       7.18669122      23.33480947  F       0.01249467       0.00748974      -0.01495953
Ti       3.10245795       1.10921030      23.49090188  F       0.00150064      -0.00896940       0.01659188
Ti       0.79375622       4.40896039      24.13365947  F       0.02338157       0.01219805       0.00759286
Ti       3.05959677       6.09194972      24.58978751  F       0.00421663       0.01197267      -0.00165793
Ti       0.76080936       1.67232811      25.09229589  F       0.01187911      -0.01600561      -0.00603705
Ti       3.08464569       3.31669771      25.48714442  F      -0.00978473      -0.02010056       0.00408506
Ti       0.73912730       6.62938580      26.11721924  F      -0.00331873       0.00688649       0.01093013
Ti       3.08009134       0.56166471      26.44052713  F       0.01482372      -0.01640779      -0.02636593
Ti       0.74601936       3.86598390      27.07638924  F       0.01907379      -0.01436713      -0.01865124
Ti       3.06590673       5.56473196      27.41701793  F      -0.02767839      -0.00793145       0.04596859
Ti       0.75109527       1.11289355      28.03317865  F       0.04944381      -0.01850667      -0.11022199
Ti       3.07149955       2.76040246      28.43225477  F      -0.05333484      -0.04604873       0.08677278
Ti       0.72388093       6.10122002      28.94576309  F      -0.02967197      -0.10782239       0.23443854
Ti       3.10053935       0.01078555      29.38461137  F       0.04758894       0.03164310       0.35196845
Ti       0.72825367       3.33351322      30.02154064  F      -0.18257385       0.14647137       0.45258119
Ti       3.05496325       5.00779175      30.21153584  F       0.18796182       0.11844309       0.60637696
Ti       0.84277835       0.62260931      30.95674062  F       0.01933390       0.21931366       0.30325879
Ti       2.95021785       2.27585290      31.42661858  F       0.56224965       0.38875913      -0.17719928
Ti       0.77997675       5.60011914      31.67497913  F       0.12433926      -0.27854011      -0.12427466
Ti       3.59452804       7.39562636      32.33312842  F      -0.99075472       0.19684994      -0.42480700
Ti       0.37653022       2.79880462      33.04479981  F       0.31073800      -0.61476817      -1.78917281
Ti       2.70453905       4.56632224       7.99995142  F      -0.80662028       0.60687666       0.63718479
