100
Lattice="4.4265 -2.555641 0.0 3.767997 6.526363 -0.031456 0.0 0.0 61.781652" Properties=species:S:1:pos:R:3:move_mask:L:1:forces:R:3 job_name=BondOrder-VacuumGB-CSL13-V-V-64-d-6.97 top_level=BondOrder-VacuumGB solute=V energy=-764.76713398 stress_kbar_3x3="_JSON [[-34.88547143, -2.35164499, 0.62039454], [-2.35164492, -36.24150009, -0.36020862], [0.62039453, -0.36020857, -18.39668844]]" pbc="T T T"
Ti       2.47148292      -0.94298590      52.84256889  F       0.13832429      -0.31966936      -1.06864835
Ti       5.76132224       1.51014286      52.82800892  F      -0.34159556      -0.05568724      -1.06845053
Ti       4.96374314      -0.84143644       8.45454429  F       0.09701443       0.00372065       0.44945498
Ti       4.59140435       3.72098739       8.43771671  F      -0.04787102       0.08609694       0.45714442
Ti       7.08776318       3.81648964       9.72580747  F       0.22435442      -0.05104898       0.26247825
Ti       3.78989047       1.36734634       9.74104939  F      -0.15744999       0.18121985       0.26713566
Ti       1.64441902      -0.48772217       9.92448019  F      -0.04503913      -0.10331859       0.45728018
Ti       2.12766688       3.58561890       9.91041510  F      -0.07654571      -0.08564436       0.45059501
Ti       4.68755744       3.62568867      11.23057654  F       0.01602701      -0.06066736      -0.86198853
Ti       4.82345206      -0.80375700      11.24581057  F      -0.06646161      -0.02094923      -0.86436514
Ti       3.43144488       5.84461602      12.35695505  F      -0.01746032      -0.00088450      -0.06865497
Ti       2.94234697       1.77574021      12.37237540  F       0.01134182      -0.01422797      -0.06682338
Ti       2.40169879      -0.99054956      12.80361879  F      -0.06145985       0.02137768      -0.04106220
Ti       5.73102981       1.43734215      12.78684349  F       0.05778172      -0.04867753      -0.03699805
Ti       4.29778578       3.72970728      14.02941393  F       0.03727042       0.02157959       0.02663101
Ti       5.09981360      -1.08494841      14.04390881  F       0.01283807       0.03706952       0.03537497
Ti       6.92919356       3.59163308      14.95621204  F      -0.00601260      -0.01002289       0.00032428
Ti       3.66557976       1.12554718      14.97237044  F       0.00030682      -0.01035132      -0.00035492
Ti       6.37544619       0.88065301      15.66801866  F      -0.01324465       0.00937497       0.04412797
Ti       1.59544540      -0.71133874      15.68578842  F       0.00964337       0.00029386       0.03084176
Ti       4.78149971       3.19096412      16.77154200  F      -0.01468819       0.01138379      -0.00580257
Ti       4.39277939      -0.93683062      16.78554486  F       0.00128039       0.01171580       0.00653375
Ti       3.18378230       5.41827900      17.57610291  F       0.00500754      -0.00171834      -0.01535538
Ti       2.69140099       1.35052439      17.58856054  F      -0.00164910       0.00006499       0.00055842
Ti       5.89891341       5.20980801      18.51070347  F      -0.00483394       0.00427235      -0.01244919
Ti       5.57962585       1.04510240      18.52463307  F       0.00688812      -0.00763981      -0.01107663
Ti       0.59267821       0.93502628      19.46834194  F       0.02256907       0.00649500      -0.00991549
Ti       3.86694101       3.39451149      19.45057886  F       0.00682110      -0.00442950      -0.00081174
Ti       3.31820079       0.66922375      20.27116245  F      -0.00521680       0.00859554       0.00586648
Ti       6.70639708       3.06509618      20.25876654  F      -0.01088641       0.00344942      -0.01105553
Ti       5.10777888       5.38374328      21.36381404  F       0.00995116       0.01208207       0.00313362
Ti       6.11859772       0.44939483      21.38219808  F       0.00017884       0.00743076      -0.00698164
Ti       4.55414904       2.67693314      22.06831510  F      -0.00143737       0.00050881       0.00442925
Ti       4.05042664      -1.38666668      22.08479719  F      -0.00707143       0.00394384      -0.01213364
Ti       7.18115453       2.54891899      23.00151133  F       0.00029708       0.00358340      -0.01483371
Ti       2.62597165       0.82846863      23.01303629  F       0.00629893      -0.00158226       0.00720812
Ti       5.75607692       4.85377272      24.24222792  F       0.01621338       0.01994897       0.00090999
Ti       5.32580314       0.75186588      24.25616214  F      -0.00357536       0.00253796       0.00325355
Ti       3.63907040       3.00247561      24.66857291  F      -0.01461926      -0.00302156      -0.00051749
Ti       0.35855819       0.54822574      24.68435310  F      -0.01165536       0.00222970       0.00250903
Ti       2.90735179       0.57755976      25.81669850  F      -0.00141468       0.01179320      -0.03260429
Ti       6.80848735       2.67657301      25.79491436  F       0.00783222      -0.00210810      -0.00424831
Ti       4.95147142       5.28146844      27.10482860  F       0.00801712       0.00081252      -0.01518097
Ti       1.66047155       2.83370001      27.12029834  F      -0.00540907      -0.00549104      -0.01222917
Ti       4.41577161       2.50279324      27.31122122  F       0.01423386       0.00423813       0.00707482
Ti       3.94737967      -1.57679280      27.32293018  F       0.00666981       0.00362267       0.01644615
Ti       6.92750303       2.60352577      28.58183856  F       0.00789756      -0.01196450       0.01959508
Ti       2.77258394       0.64733624      28.60258579  F      -0.01079637       0.01978003       0.00801434
Ti       3.62486114       2.97412299      30.00188260  F      -0.01947190       0.00075821      -0.00132862
Ti       0.31441906       0.53455130      30.01915496  F      -0.00124838      -0.01836065      -0.00536612
Ti       5.75462423       4.83256973      29.93610464  F      -0.00595885       0.03346273      -0.00214353
Ti       5.28542944       0.75294250      29.94800077  F       0.00967869      -0.00249197       0.01246293
Ti       2.80382788       0.66156388      31.37665067  F       0.00180844       0.00653486      -0.05391650
Ti       6.90200639       2.63971364      31.35316231  F       0.00298199       0.00274884      -0.01189074
Ti       3.95723854      -1.53821868      32.72569919  F       0.00545633      -0.00509174      -0.01471451
Ti       4.41110267       2.55145186      32.71250134  F       0.01415596       0.01394141      -0.01758674
Ti       6.08788084       0.32553326      32.78834427  F      -0.00945856      -0.00417816      -0.00022031
Ti       4.96287327       5.32251062      32.75613306  F       0.01365603       0.00767961       0.01401950
Ti       2.85652046       0.67297144      34.13332034  F      -0.01837148      -0.00471695       0.02823113
Ti       6.87053140       2.71009664      34.11727003  F       0.01506995      -0.02037408      -0.00172061
Ti       0.34482629       0.58465230      35.41584660  F      -0.00455557      -0.02339841       0.01292167
Ti       3.59899495       3.08911034      35.39926029  F       0.00092694      -0.01623001       0.01397127
Ti       5.29848901       0.86342530      35.62753209  F       0.00425498       0.03644987       0.02641128
Ti       5.77668284       4.87831040      35.57736125  F      -0.00527245       0.02269616       0.01664003
V        7.02614809       2.69309421      36.84194825  F      -0.00848601      -0.03194111       0.00214467
Ti       2.72514647       0.83170506      36.92586030  F       0.03157559      -0.00312413      -0.00409046
Ti       4.57820827       2.72725325      37.95603796  F      -0.01914739      -0.00131468      -0.01079985
Ti       3.95600771      -1.45450143      37.96670736  F       0.00778205      -0.00051207      -0.00350654
Ti       6.15002877       0.48689622      38.40784636  F       0.02655776       0.02163163      -0.00835765
Ti       4.98561286       5.45332737      38.37508644  F      -0.01718205       0.00578352       0.00044560
Ti       3.27693574       0.65767525      39.66516870  F      -0.01765337       0.00464555       0.01352893
Ti       6.83946896       2.97840793      39.65107424  F      -0.02715532      -0.01050469      -0.00127270
Ti       3.83243695       3.29030099      40.56231232  F       0.02225814      -0.00949962      -0.00304318
Ti       0.62920104       0.91569758      40.50189901  F       0.00761660      -0.01108941       0.00174560
Ti       5.87788376       5.16490907      41.24513662  F      -0.00674670      -0.02155354       0.00645929
Ti       5.57996258       1.02817439      41.32360591  F      -0.00011124       0.01029348       0.00199208
Ti       3.19211725       5.37310778      42.36131770  F       0.01178827      -0.00124470      -0.01286378
Ti       2.72770919       1.26595156      42.36768121  F      -0.01750373      -0.00169665      -0.04680081
Ti       4.84767651       3.14918048      43.15423556  F      -0.00711789       0.00645150       0.00811684
Ti       4.35350973      -0.96478544      43.14536395  F      -0.01937901      -0.00925685      -0.01220827
Ti       6.38841295       0.84781826      44.18009557  F      -0.00934236       0.00126199       0.01089364
Ti       1.66262743      -0.73721280      44.21873277  F      -0.00487296      -0.00689717       0.01124879
Ti       6.95633997       3.53198981      44.98935875  F      -0.00725726      -0.01406358       0.00791526
Ti       3.69900241       1.09697447      44.97635436  F      -0.00668200      -0.01415340       0.01215238
Ti       4.28538044       3.74836461      45.84970333  F      -0.00705540       0.01145534       0.01045066
Ti       5.16675291      -1.11303183      45.85827054  F       0.02933435      -0.00743829       0.01599390
Ti       5.80108610       1.42868286      47.07128250  F      -0.02818140       0.00008904      -0.01645196
Ti       2.42359658      -0.98295182      47.10348318  F      -0.00755623      -0.02291581      -0.01102255
Ti       3.47391886       5.84183080      47.56463362  F       0.01554770       0.01421904      -0.03154868
Ti       2.97588359       1.76326097      47.56138783  F      -0.00854665       0.01036438      -0.01010996
Ti       4.74729916       3.61463077      48.63304217  F       0.02436285       0.00040041       0.00073277
Ti       4.84173542      -0.77748681      48.64989589  F      -0.01852147      -0.00779449       0.01566533
Ti       2.15132942       3.59204112      49.96635301  F       0.06755776      -0.09361608       0.21379064
Ti       1.67743243      -0.48087716      49.98373326  F      -0.10714590       0.00380591       0.20000959
Ti       7.11413959       3.82309407      50.16089305  F      -0.05860950       0.05174614       0.41593884
Ti       3.81901602       1.37563543      50.17612315  F       0.06633920      -0.03352692       0.40707274
Ti       4.60462876       3.73168700      51.43755666  F      -0.09957758       0.04925735       0.93196715
Ti       4.98167323      -0.84176389      51.45812118  F       0.10953546      -0.05155309       0.92560235
Ti       3.47928466       5.92283592      52.83399561  F       0.39680402       0.06892045      -0.69029670
Ti       3.00937196       1.84515468      52.84403274  F      -0.11554522       0.38382326      -0.69164337
