52
Lattice="4.6568 0.0 0.0 0.0 7.770572 0.0 0.0 0.0 41.044546" Properties=species:S:1:pos:R:3:move_mask:L:1:forces:R:3 job_name=BondOrder-VacuumGB-CSL7-V-V-31-d-3.01 top_level=BondOrder-VacuumGB solute=V energy=-392.14694783 stress_kbar_3x3="_JSON [[-24.16564569, -0.24717108, -0.55497274], [-0.24717108, -27.53052049, 0.22983815], [-0.55497273, 0.22983817, -20.77752794]]" pbc="T T T"
Ti       1.81836398       7.39558751       8.21711811  F       1.06061224      -0.12593218       0.85842253
Ti       4.63074986       5.59902349       8.87912559  F      -0.10080452      -0.08128203       0.01366795
Ti       2.45795683       2.27624143       9.12822494  F      -0.59194423       0.30289279       0.67567803
Ti       4.56692842       0.62375936       9.59202831  F      -0.30119507      -0.37412585       0.24960938
Ti       2.35637340       5.01075234      10.34141963  F      -0.06124454       0.00754777      -0.38834972
Ti       0.02478349       3.33694005      10.53038872  F       0.00801907       0.27650023       0.08119930
Ti       2.30988922       0.01264272      11.16645605  F      -0.03675511       0.17335643      -0.47439413
Ti       0.03042287       6.10377654      11.60752074  F      -0.01253562      -0.02836762      -0.23008636
Ti       2.33997215       2.76539893      12.12193204  F       0.02337155      -0.07534512      -0.19681429
Ti       0.00477788       1.11583860      12.51550819  F      -0.04479066      -0.07902531       0.10025673
Ti       2.34664534       5.56860170      13.13774351  F       0.03740382       0.03417177      -0.04756746
Ti       0.00938345       3.87291525      13.47512967  F       0.00057253       0.00549040      -0.02458524
Ti       2.33503594       0.56676221      14.10434256  F       0.00055927      -0.01062710      -0.00656208
Ti       0.01802647       6.63916118      14.43754219  F       0.02488422       0.01999384      -0.04025493
Ti       2.33329895       3.32112693      15.06618046  F       0.02292634      -0.02483295      -0.03003971
Ti       0.01326722       1.67272441      15.45618573  F       0.00495923      -0.04643344      -0.01410058
Ti       2.35681579       6.10290623      15.96825749  F      -0.00670318      -0.01068059      -0.01533446
Ti       4.63530887       4.42419848      16.41679229  F      -0.02566944       0.01115168      -0.00983081
Ti       2.35504621       1.09924066      17.04785218  F      -0.00854646       0.00611115      -0.02688054
Ti       0.03367798       7.19151675      17.22951534  F       0.00380147       0.00144755       0.01401974
Ti       2.22455336       3.80864485      17.99392897  F      -0.00717422       0.00161433       0.02313694
Ti       0.11160487       2.15693206      18.44775851  F      -0.00456256      -0.01711842      -0.00593724
Ti       2.30256407       6.60559230      18.71114136  F      -0.00216641      -0.02302491       0.02299245
Ti       4.13006935       4.80649508      19.36691007  F       0.00781030      -0.01048522       0.00998836
Ti       2.67496837       1.60674448      20.08305531  F       0.00240930      -0.01626960       0.00463721
Ti       0.32198512       7.62586841      20.05067117  F      -0.00837127      -0.00336330      -0.00353607
Ti       1.26416753       4.82351263      20.78060737  F      -0.00168386       0.00060042       0.00727616
Ti       3.12266846       6.62252438      21.47311095  F       0.00157682       0.00807916      -0.00725069
Ti       0.60530483       2.15043587      21.66987851  F      -0.00857992      -0.00227181       0.01050299
Ti       3.13635946       3.73562478      22.14718553  F      -0.00149463      -0.00008474      -0.00211458
Ti       0.75020582       7.28519099      22.89830072  F      -0.00650159       0.00211449      -0.01733932
V        3.07684090       1.12141787      23.01860229  F      -0.01403717      -0.00590299       0.00059407
Ti       0.76975507       4.49847738      23.67211355  F       0.01142012       0.01201384      -0.00970252
Ti       3.05087924       6.13538722      24.12504011  F       0.01388555       0.01719112       0.00361840
Ti       0.76844185       1.70281984      24.56204140  F      -0.00555633      -0.01385969      -0.01256828
Ti       3.09307916       3.33409602      25.00212102  F      -0.00342699      -0.01554716      -0.00793348
Ti       0.74015179       6.64122815      25.66872549  F      -0.00924438      -0.00883630       0.00891362
Ti       3.08656895       0.57719809      25.92701882  F       0.00432848      -0.00556203      -0.02712781
Ti       0.75003352       3.87066178      26.59559343  F       0.00916782       0.04333974       0.03846969
Ti       3.06700573       5.55979764      26.93187139  F      -0.02839096       0.00590954      -0.00192981
Ti       0.75521188       1.12444062      27.53703218  F       0.09017178       0.03825948      -0.01574844
Ti       3.07314805       2.76295897      27.93746277  F      -0.00900410      -0.01415950       0.00960388
Ti       0.72282384       6.09640226      28.46611652  F       0.02729966      -0.05255674       0.08435069
Ti       3.10110282       0.00714893      28.87282693  F       0.01695464       0.02184639       0.22727924
Ti       0.73204430       3.33351322      29.53023742  F      -0.02080688      -0.00873495       0.28353242
Ti       3.05759900       5.00399971      29.72593782  F       0.07038723       0.25790939       0.45795982
Ti       0.84627095       0.61866186      30.45767998  F      -0.19173593       0.13818991       0.08656881
Ti       2.95083254       2.27083311      30.93453552  F       0.37607290       0.17135645      -0.20238928
Ti       0.78168113       5.59293136      31.18938110  F      -0.08364013      -0.24100388       0.27681426
Ti       3.59347560       7.38968964      31.83435510  F      -1.26928160      -0.14715388      -0.17665010
Ti       0.37713560       2.79587512      32.55111601  F       0.32683240      -0.15024751      -1.28371302
Ti       2.70563340       4.56639995      32.55649284  F       0.72042100       0.03574697      -0.27035171
