52
Lattice="5.088765 0.0 0.0 0.0 5.495746 0.0 0.0 0.0 48.722931" Properties=species:S:1:pos:R:3:move_mask:L:1:forces:R:3 job_name=BondOrder-VacuumGB-C1-V-V-36-d-6.31 top_level=BondOrder-VacuumGB solute=V energy=-395.73560951 stress_kbar_3x3="_JSON [[-36.70879792, -0.04757229, 0.10348587], [-0.04757229, -25.30176365, 0.40561269], [0.10348583, 0.40561267, -22.42427697]]" pbc="T T T"
Ti       2.62350262       0.79284380      40.08240642  F       0.04963506       0.00487155      -1.17276789
Ti       0.02801365       1.59793212       8.73923724  F       0.11501285      -0.00710644       0.76414772
Ti       0.81942347       4.34590404       8.73378027  F      -0.11091850      -0.00761918       0.77643731
Ti       2.56987721       2.35644399       9.95263312  F      -0.39770049       0.09849679      -0.01023207
Ti       3.36702207       5.10334424       9.95331524  F       0.38853999       0.10376786      -0.01098457
Ti       0.81357648       0.38801066      11.19838102  F      -0.07643449      -0.07387397      -0.58141341
Ti       0.03656278       3.13653765      11.19842974  F       0.07691125      -0.07858348      -0.58428639
Ti       3.37300646       1.18392658      12.44130298  F      -0.05495499      -0.01618732      -0.06013220
Ti       2.56417780       3.93177210      12.44315446  F       0.05872073      -0.01527422      -0.05773499
Ti       0.01050321       4.70381450      13.68422495  F      -0.00492448       0.00951096       0.07191178
Ti       0.83676598       1.95546886      13.68441985  F       0.00391265       0.01141149       0.07139782
Ti       3.37409037       2.73700791      14.93123965  F      -0.00081864      -0.00208601      -0.00993453
Ti       2.56334324       5.48512272      14.92953435  F       0.00274924      -0.00105231      -0.00925704
Ti       0.82973840       3.54061238      16.17820562  F      -0.01372476      -0.01525276      -0.00771882
Ti       0.01973423       0.79256901      16.17918008  F       0.01162225      -0.01685670      -0.00476074
Ti       2.55442263       1.57392670      17.42721796  F       0.01102705       0.00038867       0.00558561
Ti       3.38048186       4.32211845      17.42638967  F      -0.01002817       0.00142398       0.00894222
Ti       0.82797260       5.09291331      18.67043227  F       0.00129908       0.00482563       0.00969359
Ti       0.01990216       2.34539754      18.66653443  F       0.00227408       0.00526640       0.01165453
Ti       3.35785212       0.39457258      19.91574166  F      -0.00053102      -0.00110351      -0.00379901
Ti       2.58194776       3.14097822      19.91769058  F       0.00085627       0.00287756      -0.00600909
Ti       0.02450749       3.91917585      21.16066127  F       0.00781933      -0.00081138       0.00116933
Ti       0.82161164       1.17273724      21.16080744  F       0.00279678      -0.00481269       0.00117850
Ti       2.57532728       4.67758880      22.37542139  F       0.00355457      -0.00970940       0.00283660
Ti       3.36607556       1.92885846      22.38604299  F      -0.00942123      -0.01062944       0.00014081
Ti       0.78374105       2.72751126      23.76095538  F       0.00355607      -0.00324212       0.00360441
Ti       0.08047882       5.47507650      23.76363514  F      -0.00555310       0.00276414      -0.00923647
Ti       3.37806978       1.93626123      25.15525949  F      -0.00416498      -0.00411386       0.00081986
Ti       2.57340882       4.68806369      25.13396757  F       0.00072984      -0.00314805       0.00229967
Ti       0.05800174       3.91017382      26.33854459  F      -0.00073488      -0.00088784       0.00421645
Ti       0.81852785       1.14780854      26.35998268  F      -0.00516451       0.00050085       0.00767036
Ti       3.37319983       0.32835983      27.63506179  F      -0.00207597       0.00088361       0.00990704
Ti       2.55943507       3.10861926      27.63330776  F      -0.00152781      -0.00492299       0.00444815
Ti       0.83988031       5.08974776      28.85016296  F       0.00025122       0.01055598       0.00889098
Ti       5.04322055       2.36691888      28.79822432  F       0.00237529       0.00569952       0.00233396
Ti       2.57377521       1.58741875      30.04913685  F       0.01001700      -0.00317539      -0.00027840
V        3.35779105       4.33542365      30.03149915  F      -0.00671712      -0.00063633      -0.01251858
Ti       5.04168883       0.76392518      31.29157159  F       0.01083158      -0.01177889      -0.00282748
Ti       0.80942405       3.53884824      31.24465141  F      -0.01441790      -0.00711544      -0.00327539
Ti       3.38964163       2.79595528      32.48708615  F      -0.01273339       0.00307956       0.01539243
Ti       2.54331386       0.01680050      32.46145789  F       0.00736571      -0.00442909       0.01188911
Ti       0.84075049       1.97763870      33.73507530  F       0.01912541      -0.00081570      -0.00275286
Ti       0.04525948       4.71161846      33.76494246  F      -0.02131923       0.00564447       0.00078034
Ti       2.56630490       3.92462763      35.00382043  F       0.01077297       0.01554145      -0.06286835
Ti       3.37603936       1.18075553      34.96781418  F      -0.01502114       0.01847585      -0.06324223
Ti       0.82079744       0.39994742      36.23972629  F       0.01031041      -0.00631141       0.03833234
Ti       0.03450183       3.13873595      36.23042021  F      -0.01386421      -0.00580554       0.04256394
Ti       2.58245155       2.36191775      37.47519366  F       0.09286888      -0.09709513       0.75073523
Ti       3.37864481       5.11234627      37.47436537  F      -0.09513380      -0.08869007       0.74241164
Ti       0.82070075       4.35357060      38.69092823  F       0.28996114       0.10290893       0.24080163
Ti       0.04022669       1.60642854      38.70320641  F      -0.27631427       0.09239772       0.23736101
Ti       3.31696898       3.54056841      40.07967793  F      -0.04069761       0.00183371      -1.17352384
