52
Lattice="4.6568 0.0 0.0 0.0 7.770572 0.0 0.0 0.0 41.044546" Properties=species:S:1:pos:R:3:move_mask:L:1:forces:R:3 job_name=BondOrder-VacuumGB-CSL7-V-V-28-d-1.62 top_level=BondOrder-VacuumGB solute=V energy=-390.82438783 stress_kbar_3x3="_JSON [[-24.01436751, 3.30799789, 1.32484196], [3.30799789, -28.70883809, -0.46722743], [1.32484195, -0.46722741, -22.93605109]]" pbc="T T T"
Ti       1.81775394       7.40372330       8.70296240  F       1.24043050      -0.80401927       0.11563972
Ti       4.63378144       5.60377908       9.36841762  F       0.22603658       0.01619367      -0.09315435
Ti       2.45889751       2.28300959       9.61636773  F      -0.65085904       0.36288759       0.89297440
Ti       4.56849776       0.62761356      10.08324944  F      -0.03337205      -0.33455951       0.49014862
Ti       2.35893929       5.01548462      10.83571910  F       0.05722500      -0.01717312      -0.75632453
Ti       0.02600823       3.33926345      11.01652032  F      -0.01259639      -0.00936476      -0.07436376
Ti       2.31041078       0.01585974      11.65722569  F      -0.06612931       0.24276516      -0.34662862
Ti       0.02797805       6.10817468      12.09952172  F       0.03474035       0.04093709      -0.22075579
Ti       2.34094076       2.76977377      12.60769424  F       0.00795485      -0.06859064      -0.10118880
Ti       0.00302226       1.12095941      13.00787856  F      -0.06284462      -0.01893098       0.05057251
Ti       2.34309686       5.57686959      13.63343849  F       0.01268816       0.04355504       0.04989024
Ti       0.00732049       3.87658296      13.95691056  F       0.00776024      -0.01030708      -0.05696727
Ti       2.32691914       0.57353038      14.59872412  F      -0.01068679       0.01708135      -0.00357858
Ti       0.00954644       6.64585164      14.93249837  F       0.01714012       0.01190816      -0.04091292
Ti       2.32194568       3.33219223      15.54504717  F      -0.00026244      -0.03504287      -0.00760244
Ti       4.65578947       1.68242986      15.95097773  F      -0.01088575      -0.02230588      -0.02627467
Ti       2.34126208       6.11323332      16.47154571  F      -0.00871673      -0.00576978      -0.02884170
Ti       4.61622530       4.43056258      16.89032321  F      -0.01703846      -0.01283922       0.00785479
Ti       2.32173146       1.11977051      17.54038673  F      -0.00649253      -0.01689496      -0.01540117
Ti       0.01542798       7.20637408      17.72209094  F       0.00228274      -0.00253443       0.01046279
Ti       2.17972700       3.83407016      18.45888158  F      -0.00554707       0.00445612       0.01607753
Ti       0.06760277       2.16886766      18.94747586  F      -0.00147412      -0.00368588       0.00778035
Ti       2.27027382       6.63334102      19.21615346  F      -0.01284240      -0.01113380       0.02206691
Ti       4.12874682       4.81083106      19.81265384  F      -0.01057540      -0.01683147      -0.00708177
Ti       2.55021270       1.65088910      20.57706747  F       0.00524679      -0.00330523       0.00305217
Ti       0.27593868       7.67270942      20.55711982  F      -0.00263361      -0.01996313       0.00886075
Ti       1.24564743       4.74539507      21.26899643  F       0.00398525      -0.01391960       0.00236804
Ti       3.15111220       6.48895602      21.92669423  F      -0.00365266       0.00259909      -0.01935876
V        0.57960396       2.12100871      22.09288360  F       0.00729338      -0.00757872      -0.01214516
Ti       3.24440187       3.69325962      22.57511597  F       0.00055631       0.01682908      -0.01159884
Ti       0.78098261       7.20652172      23.31309691  F       0.00413018       0.00737673      -0.00165373
Ti       3.09911437       1.08063791      23.46890200  F      -0.00343409       0.00097246       0.02149048
Ti       0.85467182       4.44165118      24.14621910  F       0.00276265       0.00666019       0.00846941
Ti       3.10080013       6.10096359      24.60115685  F      -0.01277605       0.01490245      -0.00356346
Ti       0.78006988       1.70625443      25.04410959  F       0.00537387      -0.01851745      -0.00038048
Ti       3.13099482       3.31966606      25.51870767  F      -0.01120887      -0.01038434       0.02666640
Ti       0.75864860       6.65534728      26.10855884  F      -0.00569952       0.00935588       0.01652621
Ti       3.09645999       0.57318847      26.42969137  F       0.01668399       0.00300118      -0.03568456
Ti       0.77268420       3.88271394      27.07404970  F       0.02339743      -0.01896769      -0.02072601
Ti       3.07792593       5.57497357      27.41508883  F      -0.02533108      -0.00428960       0.06284734
Ti       0.76165224       1.13560693      28.00760790  F       0.06099136      -0.02082208      -0.10153679
Ti       3.08169328       2.77431178      28.43656445  F      -0.04898867      -0.06170867       0.09799180
Ti       0.73314331       6.11716523      28.93747209  F      -0.02363461      -0.09724568       0.23996975
Ti       3.10779465       0.02244918      29.36544357  F       0.04993374       0.04834332       0.35640185
Ti       0.73456363       3.34825400      30.01201830  F      -0.17396128       0.13931977       0.46560771
Ti       3.05698430       5.02051995      30.21050973  F       0.20000748       0.13641906       0.60725136
Ti       0.84675991       0.63186406      30.93695715  F       0.01792170       0.21266727       0.31654011
Ti       2.95148915       2.28690265      31.42325293  F       0.56214798       0.38775345      -0.17101311
Ti       0.77824907       5.60445512      31.67296795  F       0.13554538      -0.26047961      -0.12622934
Ti       3.59413221       7.40248000      32.32442698  F      -0.98107546       0.21684459      -0.45256306
Ti       0.37646968       2.80202164      33.03921775  F       0.30494266      -0.61840675      -1.78819059
Ti       2.70365426       4.57835109       8.00159320  F      -0.80445964       0.60274348       0.62620902
