52
Lattice="4.6568 0.0 0.0 0.0 7.770572 0.0 0.0 0.0 41.044546" Properties=species:S:1:pos:R:3:move_mask:L:1:forces:R:3 job_name=BondOrder-VacuumGB-CSL7-V-V-25-d-0.00 top_level=BondOrder-VacuumGB solute=V energy=-392.47563965 stress_kbar_3x3="_JSON [[-24.08137101, -0.20263652, 0.42934177], [-0.20263655, -27.86684795, -0.45279688], [0.42934176, -0.45279685, -21.28208169]]" pbc="T T T"
Ti       1.81616131       7.39115828       8.22647627  F       1.06411631      -0.11751582       0.84086311
Ti       4.62987438       5.60086512       8.89180836  F      -0.09663255      -0.07723261       0.01774704
Ti       2.45695562       2.27432210       9.13413536  F      -0.59354392       0.30881039       0.68127360
Ti       4.56512624       0.62246167       9.60015513  F      -0.30616305      -0.37077688       0.23759376
Ti       2.35640134       5.01035604      10.35438971  F      -0.07008003       0.00812721      -0.38385735
Ti       0.02443889       3.33599204      10.53478049  F       0.00646000       0.27585201       0.08496130
Ti       2.30595888       0.01130618      11.16662023  F      -0.04132680       0.17090994      -0.47924900
Ti       0.02493716       6.10724221      11.62410274  F      -0.01090730      -0.02982237      -0.22826219
Ti       2.33956701       2.76550772      12.12451784  F       0.01133615      -0.07402846      -0.19933885
Ti       0.00186272       1.11402028      12.51764251  F      -0.04217405      -0.07924525       0.11108618
Ti       2.34064273       5.57516006      13.15317626  F       0.03093310       0.02862980      -0.03844394
Ti       0.00217938       3.87380887      13.47521176  F      -0.00719247       0.00871335      -0.02404135
Ti       2.33233500       0.56373169      14.09851424  F      -0.02046535      -0.01282192       0.00237279
Ti       0.00486636       6.64266570      14.46376965  F       0.01481577       0.02190396      -0.03580049
Ti       2.32064643       3.32327161      15.06564688  F       0.01782136      -0.02080174      -0.02668222
Ti       4.65652525       1.66803099      15.44740220  F      -0.00871180      -0.04682664      -0.00470253
Ti       2.32770148       6.10720336      15.99288422  F      -0.01042685      -0.00108920      -0.02020073
Ti       4.62679624       4.41844826      16.41428857  F      -0.02994665       0.02297592      -0.00663381
Ti       2.33723395       1.11105193      17.01111731  F      -0.01442752       0.00310237      -0.01483730
Ti       4.61886105       7.21052356      17.28123147  F       0.01075362       0.00431102       0.01149211
Ti       2.22412493       3.82605093      18.00468264  F      -0.01063731       0.00074304       0.01372213
Ti       0.15724151       2.12536023      18.47057928  F      -0.00935973      -0.00122918      -0.00350511
Ti       2.20145098       6.62627757      18.71988385  F      -0.00028786      -0.00812086       0.02559324
Ti       4.16278803       4.81843068      19.33485428  F       0.00102624      -0.00437502       0.01250188
Ti       2.70442729       1.58774544      20.04077943  F      -0.00122955      -0.02207136      -0.00157778
V        0.37605988       7.72209917      20.04073839  F      -0.00007283      -0.01400351      -0.00408565
Ti       1.24657414       4.81834520      20.74658144  F      -0.00371866       0.00434507      -0.00932744
Ti       3.20755727       6.62586573      21.36151083  F      -0.00588336       0.00734358      -0.01303200
Ti       0.59486429       2.12551564      21.61085645  F       0.01121996      -0.00462991       0.00864051
Ti       3.18482743       3.82595768      22.07691727  F       0.01535197      -0.00487197       0.00090506
Ti       0.78990970       7.21051579      22.79987590  F      -0.00233732       0.00835964      -0.00242531
Ti       3.07145298       1.11100530      23.07003110  F       0.01058747      -0.01576728       0.00384395
Ti       0.78210025       4.41860367      23.66698298  F       0.02274264       0.00376231      -0.00345119
Ti       3.08065016       6.10738208      24.08838733  F       0.01287391       0.00528326       0.01107153
Ti       0.75204060       1.66814754      24.63386935  F       0.00412946       0.00223904      -0.00865064
Ti       3.08806844       3.32338040      25.01570676  F       0.00089570      -0.01428295       0.00715543
Ti       0.74666200       6.64308531      25.61746085  F      -0.00626290      -0.01866088       0.00765853
Ti       3.07597939       0.56410467      25.98283940  F       0.02153179      -0.01028751      -0.03202026
Ti       0.74979602       3.87428287      26.60597770  F       0.01214810       0.03815729       0.02911691
Ti       3.06810008       5.57559522      26.92805425  F      -0.01486241      -0.00440226      -0.00986949
Ti       0.74981000       1.11447098      27.56371113  F       0.09038008       0.02670912      -0.02882572
Ti       3.06892899       2.76611383      27.95671266  F      -0.01284046      -0.01483410      -0.00032673
Ti       0.72735491       6.10768513      28.45704568  F       0.02086171      -0.06619487       0.07661111
Ti       3.10306799       0.01175688      28.91489759  F       0.01518372       0.00933473       0.23491168
Ti       0.72769020       3.33617076      29.54640897  F      -0.02023884      -0.00388149       0.27959275
Ti       3.05249515       5.01097768      29.72663557  F       0.07540810       0.24508864       0.45404558
Ti       0.84451534       0.62258600      30.48119851  F      -0.18333914       0.14109122       0.08488281
Ti       2.95269526       2.27443088      30.94688993  F       0.36857929       0.16592148      -0.20173096
Ti       0.77937602       5.60112154      31.18950424  F      -0.09079175      -0.24421571       0.26136028
Ti       3.59354545       7.39139140      31.85504155  F      -1.27487243      -0.14121706      -0.15290483
Ti       0.37646503       2.80008677      32.56289579  F       0.33373334      -0.13920361      -1.27735171
Ti       2.70478586       4.56895647      32.56281370  F       0.71584312       0.05069603      -0.28786870
