52
Lattice="4.6568 0.0 0.0 0.0 7.770572 0.0 0.0 0.0 41.044546" Properties=species:S:1:pos:R:3:move_mask:L:1:forces:R:3 job_name=BondOrder-VacuumGB-CSL7-V-V-33-d-4.09 top_level=BondOrder-VacuumGB solute=V energy=-392.26444416 stress_kbar_3x3="_JSON [[-24.65328542, -0.43100708, -1.02977066], [-0.4310071, -26.37322545, 0.25163761], [-1.02977066, 0.25163759, -21.69914565]]" pbc="T T T"
Ti       1.81540226       7.39726595       8.21215172  F       1.06895417      -0.12357144       0.86009603
Ti       4.63296650       5.59962959       8.87752485  F      -0.10821656      -0.07167054       0.03054956
Ti       2.45789164       2.27880572       9.12256079  F      -0.59152124       0.29878277       0.68631055
Ti       4.56727302       0.62431107       9.59075593  F      -0.30640987      -0.37858200       0.25911857
Ti       2.35806382       5.01317676      10.34158381  F      -0.06637014       0.00454982      -0.37933825
Ti       0.02416879       3.33548695      10.52841858  F       0.01568882       0.27865834       0.08674700
Ti       2.31113259       0.01402588      11.16485531  F      -0.03838593       0.17105240      -0.46944075
Ti       0.03001773       6.10493435      11.61183042  F      -0.00911266      -0.02650928      -0.22390910
Ti       2.34132262       2.76605943      12.11889474  F       0.02147285      -0.07599260      -0.19348640
Ti       0.00611438       1.11579197      12.52002309  F      -0.04228399      -0.08523553       0.10619422
Ti       2.34687818       5.57031900      13.14147856  F       0.03905415       0.03542280      -0.03628263
Ti       0.01007266       3.87143107      13.47369312  F      -0.00290983       0.01547454      -0.02352162
Ti       2.33819325       0.56503714      14.10770822  F      -0.00169421      -0.01928294      -0.01184948
Ti       0.01776104       6.63824425      14.44932197  F       0.02427135       0.01882929      -0.04176625
Ti       2.33616289       3.32023332      15.06203496  F       0.02490757      -0.01942461      -0.02489743
Ti       0.01759805       1.66984930      15.46394315  F       0.00011134      -0.04802742      -0.01833355
Ti       2.35652707       6.09916082      15.98163801  F      -0.00523667      -0.00064593      -0.02306505
Ti       4.63832647       4.41890672      16.41379603  F      -0.01757133       0.01839844      -0.00913516
Ti       2.35730941       1.09564288      17.04813949  F      -0.00365414       0.00643319      -0.02482463
Ti       0.02852756       7.19612469      17.25147417  F       0.00447996      -0.00217659       0.01291560
Ti       2.22853027       3.80595623      17.99314912  F       0.00503248       0.00139884       0.01527825
Ti       0.12802475       2.15118184      18.46906063  F       0.00064464      -0.00571346      -0.00401259
Ti       2.30166065       6.60403819      18.71594358  F      -0.00277576      -0.02047620       0.02098413
Ti       4.15920695       4.81818202      19.34425349  F       0.00263849      -0.01509089       0.00278267
Ti       2.69477840       1.59002998      20.07320462  F      -0.00275475      -0.01914888       0.00240290
Ti       0.37225528       7.62377035      20.10895442  F      -0.01076741      -0.00430576      -0.00676800
Ti       1.25889603       4.80731099      20.75162992  F      -0.00319174      -0.00442170       0.00209763
Ti       3.13982877       6.51458337      21.52142038  F      -0.00197238      -0.00364657      -0.01332726
Ti       0.62588323       2.17113667      21.67402401  F      -0.00174205      -0.00652861       0.00039174
Ti       3.16438874       3.75980680      22.07133521  F       0.00517771      -0.00715319       0.00269264
Ti       0.73688272       7.20579906      22.94328555  F       0.00319114       0.00378744      -0.00366322
Ti       3.04429918       1.08359849      23.04109470  F      -0.00073009       0.00538280       0.00556453
Ti       0.80405706       4.53217835      23.64605026  F       0.00986360      -0.00215083      -0.00530963
V        3.06450503       6.13137761      24.17433461  F       0.01100143      -0.00379018       0.00325337
Ti       0.73929960       1.75533336      24.62139181  F      -0.00297203       0.00355209       0.00746965
Ti       3.09108139       3.37889336      24.98053159  F      -0.00247185      -0.00842399       0.00478389
Ti       0.71301196       6.64875006      25.62402798  F      -0.01711626      -0.01748962       0.00889882
Ti       3.05602500       0.57070189      25.92878373  F       0.00946739      -0.00237389      -0.02370473
Ti       0.74451987       3.88849525      26.59099644  F       0.00111025       0.04262996       0.03023398
Ti       3.05048806       5.57988457      26.90810660  F      -0.02404630       0.01343079      -0.00134614
Ti       0.73636116       1.12017458      27.54458438  F       0.08999455       0.02474442      -0.01568482
Ti       3.06296829       2.77122686      27.91082486  F      -0.00487515       0.00033488       0.00400236
Ti       0.71204335       6.11467865      28.45807179  F       0.02333719      -0.05983626       0.08776435
Ti       3.09328871       0.01682329      28.87709556  F       0.00383204       0.01846424       0.22144412
Ti       0.72356427       3.33930230      29.51702108  F      -0.02869601       0.00476805       0.27657812
Ti       3.04497441       5.00907389      29.70709837  F       0.08212298       0.25408386       0.42925040
Ti       0.84241046       0.61905039      30.45447851  F      -0.18452633       0.13737266       0.09238253
Ti       2.94865316       2.27566640      30.91848710  F       0.37015050       0.16102408      -0.19871636
Ti       0.77350845       5.59237188      31.18293711  F      -0.08773634      -0.24986886       0.25267805
Ti       3.59082588       7.39162452      31.83098945  F      -1.28647351      -0.12913443      -0.17742320
Ti       0.37617630       2.79632581      32.54520559  F       0.31781906      -0.14566867      -1.29416572
Ti       2.70679294       4.56890207      32.54803767  F       0.72189089       0.03776518      -0.28889370
