100
Lattice="4.4265 -2.555641 0.0 3.767997 6.526363 -0.031456 0.0 0.0 61.781652" Properties=species:S:1:pos:R:3:move_mask:L:1:forces:R:3 job_name=BondOrder-VacuumGB-CSL13-Al-Al-60-d-5.27 top_level=BondOrder-VacuumGB solute=Al energy=-757.67359274 stress_kbar_3x3="_JSON [[-35.60700214, -2.03831494, 0.13138585], [-2.03831494, -37.60377807, -0.7827083], [0.1313858, -0.78270826, -22.83572759]]" pbc="T T T"
Ti       2.44626093      -0.97984301       8.06477259  F       0.14069986      -0.00391578       1.70762086
Ti       5.74378359       1.46541255       8.04719775  F      -0.08248588       0.12660450       1.70893271
Ti       4.97583627      -0.89322407       9.39434340  F       0.43851646       0.01458657      -0.03921109
Ti       4.54668898       3.70391257       9.37750890  F      -0.21941296       0.38624214      -0.03494089
Ti       7.07078309       3.78505519      10.60931060  F      -0.15074961      -0.03784420      -1.00531069
Ti       3.77527877       1.33594548      10.62590665  F       0.03742571      -0.14450541      -1.00077260
Ti       1.63987189      -0.51713697      10.90315560  F       0.27768714      -0.23960088      -0.15229116
Ti       2.10833839       3.56621743      10.88902338  F      -0.34506468       0.11406845      -0.16340685
Ti       4.71586770       3.58105413      12.17544383  F       0.02526620      -0.13481137      -0.32472827
Ti       4.77056568      -0.80190422      12.19018502  F      -0.12257936      -0.04985951      -0.31942470
Ti       3.41026618       5.80458044      13.23623510  F      -0.08055896       0.03454105       0.05117690
Ti       2.91890988       1.73666913      13.25048282  F       0.07622504      -0.05597768       0.05218422
Ti       2.36999169      -1.00757283      13.77334775  F       0.03903091      -0.04855288       0.00981584
Ti       5.73416563       1.39976721      13.75706827  F      -0.06034598       0.00786879       0.00789270
Ti       4.23673778       3.71473517      14.95743231  F      -0.00277315       0.01627323      -0.03655601
Ti       5.11946398      -1.14655526      14.97285408  F       0.01720063       0.00510456      -0.03485165
Ti       6.89315320       3.53639581      15.83576341  F      -0.00145934      -0.00948649      -0.01573511
Ti       3.63661474       1.06625977      15.85130386  F      -0.00620980      -0.00492073      -0.01302630
Ti       6.34114242       0.83931064      16.61831795  F      -0.00577662      -0.01075077      -0.00339449
Ti       1.57630280      -0.76009434      16.63422941  F      -0.00307756      -0.01017683      -0.00376927
Ti       4.76799919       3.12920503      17.68146647  F      -0.00659264       0.00016992       0.00647782
Ti       4.34422307      -0.97714939      17.69713310  F       0.00424344      -0.00633311       0.00621122
Ti       3.14496989       5.36436371      18.46924724  F      -0.00360089      -0.00465863       0.00418542
Ti       2.66561047       1.28980447      18.48429712  F      -0.00190660      -0.00741992       0.00606175
Ti       5.86927874       5.15490135      19.44448456  F      -0.00112483      -0.01110941      -0.00241958
Ti       5.54819877       0.99069978      19.45816896  F      -0.01016492      -0.00608492      -0.00146139
Ti       0.56696815       0.86810771      20.36428611  F      -0.00101283       0.00040277      -0.00677925
Ti       3.82758170       3.33456833      20.34819440  F      -0.00181457      -0.00301299      -0.00704326
Ti       3.27197372       0.61526452      21.17797617  F      -0.00114956       0.00302395       0.00093083
Ti       6.68482770       2.99810168      21.16193080  F      -0.00095240      -0.00178230       0.00131243
Ti       5.06626482       5.32725444      22.29021184  F      -0.00439306      -0.00024268       0.00224579
Ti       6.09559726       0.38219104      22.30340632  F       0.00100615      -0.00006049       0.00618244
Ti       4.51738805       2.60098392      22.95609802  F      -0.00650374      -0.00400311      -0.00247411
Ti       4.00799428      -1.45921100      22.97035550  F       0.00004156      -0.00069936      -0.00650573
Ti       7.12699390       2.49049031      23.91243535  F      -0.01090532      -0.00013505      -0.00006890
Ti       2.60661784       0.74805594      23.92897145  F       0.01017223       0.00489740      -0.00108204
Ti       5.72797090       4.77538489      25.17720277  F       0.00282989      -0.00155410       0.00193228
Ti       5.27867250       0.67924952      25.18757250  F      -0.00089495       0.00941324       0.00501803
Ti       3.59605994       2.91830875      25.55034398  F      -0.00398506       0.00065656      -0.00574831
Ti       0.31209301       0.46210283      25.56780655  F       0.00117921       0.00416792      -0.00591049
Ti       2.84642179       0.50556613      26.72960091  F       0.00290010       0.01331755       0.00197221
Ti       6.78579248       2.58199092      26.70936317  F       0.00473187      -0.00739453       0.00721652
Ti       4.89881281       5.20086182      28.05277508  F       0.00067966       0.00206156       0.00371282
Ti       1.62119484       2.74032900      28.06616246  F       0.00783122       0.01027484       0.00245071
Ti       4.37492339       2.40804967      28.18839239  F       0.00313593      -0.00108672      -0.00677066
Ti       3.89006129      -1.67157323      28.20384275  F      -0.00239861      -0.00144202      -0.00481810
Ti       6.85321626       2.50750815      29.50307266  F      -0.00451838       0.00300801      -0.00666094
Ti       2.75052753       0.53961996      29.51664827  F       0.00499049       0.00395435      -0.00379591
Ti       3.57376523       2.86962395      30.84117648  F       0.00144485       0.00148188      -0.00734647
Ti       0.27359337       0.39820003      30.86916899  F       0.00358261       0.00560630      -0.00439051
Ti       5.72264906       4.72623785      30.92005787  F       0.00130798      -0.00703413       0.00500688
Ti       5.22748648       0.64372960      30.94375712  F      -0.00127649       0.00237288       0.00201893
Ti       2.68088587       0.60450595      32.31409405  F      -0.00253554       0.01332889       0.00453681
Ti       6.89322708       2.47440951      32.30719264  F       0.00314220       0.00776655       0.00579127
Ti       3.77446153      -1.62972757      33.42781854  F       0.00643187       0.00007910       0.00216407
Ti       4.37540396       2.49659166      33.47627182  F      -0.00061003      -0.00345308      -0.00371763
Ti       5.97113222       0.17205988      33.90874982  F       0.00240402       0.00162877      -0.00161687
Ti       4.88274419       5.32140048      33.75549896  F       0.00019903       0.00977726       0.00186865
Ti       3.05514289       0.49399900      35.14306496  F       0.00513924       0.00480055      -0.00393776
Ti       6.67992377       2.70418360      35.09989391  F      -0.00418847       0.01068708      -0.00924081
Al       4.77881530      -1.84924925      35.95122316  F       0.00059300       0.00508409      -0.00847121
Ti       3.68294220       3.08675430      36.04780095  F       0.00168416       0.00489493      -0.00208286
Ti       5.44572063       0.79676452      36.79736314  F      -0.00310654       0.00620431      -0.00294267
Ti       5.67867757       4.95616101      36.68552364  F       0.00739640       0.01023527       0.00293141
Ti       3.04461692       5.21850597      37.81184217  F       0.00131986       0.00206172      -0.00078867
Ti       2.42992866       1.04697220      37.84204373  F       0.00858818       0.00705193      -0.00035179
Ti       4.65154830       2.92108638      38.60852518  F      -0.00166079       0.00260996      -0.00337523
Ti       4.12891141      -1.07853818      38.55697923  F       0.00356966       0.00927706       0.00353545
Ti       6.23902766       0.61556198      39.57610436  F      -0.00029836       0.00406204      -0.00427617
Ti       5.29961080       5.58697674      39.64343737  F       0.00058223       0.00009027      -0.00208795
Ti       3.57372929       0.93443019      40.44613703  F       0.00009769       0.00588252      -0.00152629
Ti       6.76499940       3.30384653      40.46038139  F       0.00956596       0.00006284       0.00157208
Ti       4.09328637       3.60601248      41.28773492  F       0.00016760      -0.01082106       0.00773886
Ti       5.03799117      -1.31947273      41.26767315  F       0.00033110       0.00400576       0.00654045
Ti       2.32984909      -1.15720587      42.48335008  F      -0.00250651      -0.00214722       0.00093598
Ti       5.71137824       1.25773531      42.45255000  F      -0.00051706      -0.00190046       0.00275897
Ti       3.38404730       5.68905143      43.02541055  F       0.00160279      -0.00739814       0.00119327
Ti       2.83776440       1.58468198      43.04707137  F       0.00336062      -0.00738087       0.00696502
Ti       4.71196449       3.45355485      44.03782288  F       0.01199481       0.00896217       0.01221822
Ti       4.70300118      -0.87581061      44.06467419  F       0.00434266       0.01078898       0.01289930
Ti       2.08858674       3.48585169      45.31483299  F       0.00234521      -0.01018823       0.00097718
Ti       1.62599300      -0.59964899      45.35410584  F      -0.00839778      -0.00225776      -0.00258271
Ti       7.04325141       3.70775415      45.63360423  F      -0.01626810       0.00117074      -0.01139195
Ti       3.75990506       1.26205852      45.65226315  F       0.01423921      -0.01221184      -0.00935130
Ti       4.51898622       3.65944654      46.84224479  F       0.01486438       0.01120164      -0.02867561
Ti       4.97775935      -0.95665678      46.85908603  F      -0.00221554       0.00670232      -0.02880891
Ti       5.73866278       1.43174310      48.17296858  F       0.02884067      -0.05738579      -0.02285492
Ti       2.44204602      -1.02068367      48.18939360  F      -0.07278897      -0.00379223      -0.02556728
Ti       3.44819027       5.84401536      48.30198166  F       0.05042546      -0.05374935       0.01721700
Ti       2.98183990       1.75809043      48.31679834  F      -0.07545244       0.01731266       0.02170115
Ti       4.61345058       3.63195276      49.62114752  F      -0.00055342       0.06263910       0.35153109
Ti       4.90910120      -0.88609072      49.63661553  F       0.05031887       0.03237714       0.34534460
Ti       2.11238940       3.54468237      51.00354873  F       0.15414015      -0.02011864       0.61557913
Ti       1.65099879      -0.53974647      51.01884391  F      -0.08270857       0.12169732       0.60941490
Ti       7.09107404       3.76012214      51.00393234  F       0.45952920      -0.06673115       0.19550749
Ti       3.77494029       1.32441086      51.02089371  F      -0.29579605       0.36918507       0.18196556
Ti       4.61040851       3.65595095      52.38616673  F       0.16165588      -0.31257328       0.09117347
Ti       4.91648428      -0.87467267      52.40110242  F      -0.34000421      -0.02035360       0.09482417
Ti       3.44961906       5.87929429      53.71089656  F       0.05523223      -0.11065131      -1.40502671
Ti       2.98849857       1.79488353      53.72427588  F      -0.11293632      -0.00415643      -1.40007484
