64
Lattice="5.088765 0.0 0.0 0.0 9.739025 0.0 0.0 0.0 38.303587" Properties=species:S:1:pos:R:3:move_mask:L:1:forces:R:3 job_name=BondOrder-VacuumGB-T2-V-V-43-d-3.50 top_level=BondOrder-VacuumGB solute=V energy=-481.6034566 stress_kbar_3x3="_JSON [[-17.43599571, 3.69470736, 0.37613163], [3.69470737, -21.02552915, 3.92675114], [0.37613163, 3.92675114, -21.10139353]]" pbc="T T T"
Ti       2.59850152       9.32662599       8.39568663  F       0.76228589       0.05400082       0.89994871
Ti       0.05368647       4.45661680       8.39660591  F       0.76600250       0.05334636       0.90453690
Ti       1.33375004       2.00200267       8.93511604  F      -0.78508425      -0.34282660       0.49255030
Ti       3.87262141       6.87011275       8.92806818  F      -0.77824079      -0.32975023       0.49494173
Ti       2.66315936       4.24724724       9.67544777  F      -0.06174093      -0.23591753       0.20631005
Ti       0.11772349       9.11552288       9.67368581  F      -0.05685138      -0.24240038       0.20711681
Ti       1.00097025       6.29925980      10.48698587  F       0.02513641       0.18829734      -0.72426918
Ti       3.54757145       1.42669899      10.49196534  F       0.03244537       0.18743207      -0.71918074
Ti       0.25850926       3.52930579      11.09877076  F       0.10541605       0.25896892      -0.41413527
Ti       2.80256608       8.40071740      11.09471058  F       0.11136066       0.25612014      -0.41673037
Ti       1.11076545       0.86168945      11.86874947  F      -0.07933279       0.04456417      -0.18282800
Ti       3.65453221       5.73302315      11.86166330  F      -0.07829118       0.03997000      -0.17828858
Ti       2.75787146       3.12101665      12.53105679  F       0.02116620      -0.12925305      -0.00092702
Ti       0.21480186       7.99294442      12.53255063  F       0.01874472      -0.13008361      -0.00355589
Ti       3.59848455       0.41239901      13.19520269  F       0.01126398       0.04829628      -0.00487486
Ti       1.05354737       5.28512539      13.18953375  F       0.01633551       0.04494061      -0.00815407
Ti       2.73481426       7.49385835      13.93204879  F      -0.01015085      -0.03574985       0.03575129
Ti       0.19164289       2.62577749      13.93538120  F      -0.01070642      -0.03319998       0.03413866
Ti       3.60404657       4.82670949      14.67624918  F       0.00751115       0.01052655      -0.01672481
Ti       1.06250360       9.69167386      14.69030660  F       0.00853861       0.01317139      -0.01124196
Ti       0.16407196       7.04006848      15.24567030  F       0.00485758      -0.00067193      -0.00168670
Ti       2.70664286       2.17038068      15.24800682  F       0.00161837       0.00187148      -0.00710810
Ti       1.11245492       4.45953850      16.00630294  F       0.00032368       0.00175837      -0.01861976
Ti       3.65015587       9.31327378      16.00526874  F       0.00414833       0.00446818      -0.01813854
Ti       0.30172305       1.77275576      16.71468947  F      -0.00853865      -0.00536791      -0.00295193
Ti       2.85651208       6.65048800      16.72077974  F      -0.00834317      -0.00560610      -0.00309539
Ti       0.88551126       8.57199763      17.38906243  F      -0.00924403       0.00724377      -0.00492524
Ti       3.45607037       3.73335784      17.35298045  F      -0.00633123       0.00965041      -0.00591265
Ti       2.56128229       0.92220776      18.20891240  F      -0.00383060       0.00570722       0.00637934
Ti       0.01769364       5.80676705      18.24633501  F       0.00042733       0.00548479       0.00787008
Ti       3.78984756       8.05540079      19.05231908  F      -0.00496548      -0.01248736      -0.00962059
Ti       1.27300545       3.17783412      19.01087460  F      -0.00146911      -0.00418144      -0.00780643
Ti       0.00092616       0.73481918      19.32534705  F       0.00385792       0.00367202       0.00655828
Ti       2.55017860       5.60770138      19.31259196  F      -0.00557296       0.00100016      -0.00121264
Ti       3.82151494       3.29734169      20.07050503  F       0.00450670      -0.01576883       0.00779092
Ti       1.22944054       8.13656583      20.12895631  F       0.00302697      -0.01609062       0.00123994
Ti       2.15779411       1.17766238      20.92241511  F      -0.00383018       0.00010695      -0.00530904
Ti       4.67519089       5.94172072      21.00388684  F       0.00543026       0.00799965      -0.00617356
Ti       1.73294330       4.20614855      21.63045692  F      -0.00158105       0.01209079       0.00578528
Ti       4.17596778       9.08860422      21.63907523  F      -0.00278428       0.01244922       0.00339120
Ti       4.98321384       2.11047593      22.33616221  F      -0.02454029       0.00323298      -0.01232129
Ti       2.48047270       6.85441345      22.35144534  F      -0.02307726      -0.00231195      -0.01098679
Ti       1.39336492       9.42660682      23.09882493  F       0.02100099       0.00973598      -0.00397384
V        3.88589800       4.57386492      23.19914202  F       0.01873981       0.00178010      -0.02684270
Ti       4.98137170       7.12633676      23.56268136  F       0.00392490       0.01768606       0.04712923
Ti       2.43468908       2.25781764      23.55720395  F       0.01045723       0.00573538       0.04955706
Ti       1.40107949       4.84591484      24.29378193  F      -0.02130304       0.03260315       0.01789418
Ti       3.99334218       0.02025717      24.31952194  F      -0.02400301       0.01905583       0.00571082
Ti       2.30418770       7.52129318      25.07808618  F       0.04862472      -0.00804502       0.03127295
Ti       4.83824510       2.67512513      25.06061974  F       0.04005662      -0.00981989       0.03246452
Ti       4.06448311       5.41884221      25.74759457  F       0.01480384      -0.03728126       0.13630050
Ti       1.54198739       0.53203320      25.78762182  F       0.01350918      -0.02214720       0.14951222
Ti       4.92836713       8.05361855      26.46050094  F      -0.12298618       0.02342471       0.18521743
Ti       2.37729290       3.18665768      26.45900710  F      -0.12376406       0.02066572       0.18621688
Ti       1.44533139       5.79017175      27.15881363  F       0.14300626       0.09239482       0.51069543
Ti       3.99735213       0.93463475      27.17574382  F       0.14910159       0.10274283       0.52731765
Ti       2.38796404       8.37814234      27.83789792  F       0.09832563       0.25345381       0.33979880
Ti       4.92983778       3.52137823      27.83284185  F       0.10075790       0.24679011       0.35268545
Ti       1.52460417       1.31756348      28.53651705  F      -0.24160923       0.29080253       0.18590718
Ti       4.06616750       6.18020996      28.53019696  F      -0.25000142       0.30103954       0.17641849
Ti       4.88334173       8.90776026      29.21138795  F      -0.69993726      -0.59151804      -0.43958329
Ti       2.33571769       4.03724464      29.20920464  F      -0.70715368      -0.57870828      -0.43745713
Ti       3.88919043       1.90524546      30.04567838  F       0.78548795       0.05389554      -1.28335146
Ti       1.33708318       6.77208947      30.04008605  F       0.79306399       0.04101030      -1.26042047
