100
Lattice="4.4265 -2.555641 0.0 3.767997 6.526363 -0.031456 0.0 0.0 61.781652" Properties=species:S:1:pos:R:3:move_mask:L:1:forces:R:3 job_name=BondOrder-VacuumGB-CSL13-V-V-50-d-0.00 top_level=BondOrder-VacuumGB solute=V energy=-761.0444824 stress_kbar_3x3="_JSON [[-36.16441843, -1.5288585, -0.05958138], [-1.52885852, -39.43088042, -0.10962111], [-0.05958136, -0.10962112, -23.53212589]]" pbc="T T T"
Ti       2.46111604      -0.92541845       8.02018562  F       0.10290927      -0.02186138       1.73291965
Ti       5.75359322       1.52461230       8.00445750  F      -0.06779111       0.09022450       1.73519658
Ti       4.97333307      -0.83231933       9.38745605  F       0.41694682       0.00145772      -0.14968787
Ti       4.57798544       3.74672146       9.37166671  F      -0.20429202       0.36680138      -0.14863365
Ti       7.08795297       3.83487142      10.63306596  F      -0.14720957      -0.04944782      -0.97430822
Ti       3.79455183       1.38582662      10.64866889  F       0.03085745      -0.14367142      -0.97169335
Ti       1.64896203      -0.46872106      10.87855785  F       0.31951951      -0.26717220      -0.10889688
Ti       2.12844924       3.60553816      10.86289098  F      -0.38423897       0.14562014      -0.10711975
Ti       4.71472254       3.62989725      12.16958574  F       0.04856079      -0.12675930      -0.32146689
Ti       4.80318663      -0.77239064      12.18469703  F      -0.13687820      -0.01898555      -0.31697147
Ti       3.43185793       5.84833688      13.25555486  F      -0.08615729       0.03610634       0.04045706
Ti       2.93857423       1.78173850      13.27140819  F       0.07448628      -0.05439126       0.03905302
Ti       2.39277203      -0.97599772      13.75953232  F       0.04322300      -0.04272878       0.01035756
Ti       5.74261635       1.44079897      13.74324856  F      -0.05819807       0.01795894       0.01210426
Ti       4.26563681       3.74445710      14.96016829  F       0.00080031       0.01893473      -0.02788876
Ti       5.12446778      -1.10249790      14.97589702  F       0.02088425       0.00856831      -0.02971219
Ti       6.91419922       3.57457620      15.85133579  F      -0.00485692      -0.00491153      -0.01315727
Ti       3.65361453       1.10648908      15.86724797  F      -0.00024608      -0.00023870      -0.01104723
Ti       6.36004924       0.87365293      16.61543595  F      -0.00608726       0.00032407      -0.00374083
Ti       1.59148547      -0.72416752      16.63116411  F       0.00126683      -0.00696885      -0.00229640
Ti       4.78314257       3.16286595      17.68736779  F      -0.00626022       0.00362414       0.01156622
Ti       4.36146776      -0.94427527      17.70198259  F       0.00700934      -0.00348797       0.00903896
Ti       3.16134205       5.39517455      18.47750400  F      -0.00158653      -0.00258434       0.00694622
Ti       2.67839504       1.32212968      18.49298837  F       0.00354902       0.00085684       0.00878754
Ti       5.88458167       5.18630341      19.45039371  F       0.00213545      -0.00877690      -0.00189985
Ti       5.56333419       1.02049299      19.46544347  F      -0.00478955      -0.00032277      -0.00119130
Ti       0.58053644       0.89927560      20.36550432  F      -0.00073780       0.00235059       0.00012142
Ti       3.84440639       3.36709321      20.35434344  F       0.00078400       0.00253473      -0.00830986
Ti       3.28359682       0.65220223      21.18529396  F       0.00504259       0.00277963      -0.00368876
Ti       6.70324790       3.02862637      21.16851621  F       0.00270672       0.00401794      -0.00010071
Ti       5.08906377       5.36377884      22.30516873  F       0.00077787       0.00098321       0.00200485
Ti       6.11527476       0.41824643      22.31874211  F       0.00056491       0.00460829       0.00310488
Ti       4.53625038       2.63710967      22.95969674  F      -0.00172268       0.00280142      -0.00341212
Ti       4.03242708      -1.42252478      22.96875091  F      -0.00008760       0.00201561       0.00180208
Ti       7.14691955       2.54020351      23.92104883  F       0.00127957       0.00066275      -0.00149366
Ti       2.64430064       0.78649023      23.94005991  F       0.00038981      -0.00594828      -0.00336910
Ti       5.76931348       4.82464581      25.19318699  F       0.00466501       0.00461828      -0.00016396
Ti       5.31435435       0.73299692      25.20101927  F       0.00508313       0.00725542      -0.00457851
Ti       3.63361646       2.97316667      25.55748109  F       0.00126322       0.00517680       0.00099990
Ti       0.34852258       0.51448745      25.56568771  F       0.00120569       0.00085868      -0.00279811
Ti       2.88139737       0.56180103      26.74297838  F      -0.00547613       0.00114585       0.00255309
Ti       6.83957100       2.64258941      26.72219137  F      -0.00163776       0.00132336      -0.00316436
Ti       4.94971173       5.25970304      28.10422917  F       0.00589691       0.00296150       0.00354624
Ti       1.66025458       2.79533715      28.05574990  F       0.00165951       0.00194254       0.00318751
Ti       4.40936155       2.47298340      28.18635590  F       0.00415994       0.00376337       0.00123871
Ti       3.93758882      -1.60331937      28.21313476  F      -0.00235283      -0.00193983       0.00887384
Ti       6.88264739       2.59470293      29.49336700  F       0.00623479       0.00956385      -0.01031712
Ti       2.80051630       0.58410655      29.53677107  F       0.00017092      -0.00123832      -0.00343359
Ti       3.73860764       3.00568552      30.86770987  F       0.00423796       0.00666357      -0.00049439
Ti       0.31181338       0.43747280      30.88618433  F       0.00217255       0.00087864       0.00148554
V        5.79015737       4.82308857      30.86637287  F      -0.00932295       0.00122033       0.00060559
Ti       5.34353235       0.66802994      30.88380779  F      -0.00049079      -0.00805333      -0.00047610
Ti       2.79742777       0.58950097      32.23124121  F       0.00083771      -0.00292043       0.00142084
Ti       6.88991698       2.59639697      32.24232031  F       0.00633310       0.01060512       0.00856374
Ti       3.94130354      -1.59208068      33.55448089  F      -0.00304262      -0.00191198      -0.00808046
Ti       4.41628399       2.48350136      33.54518214  F       0.00385000       0.00487208      -0.00019011
Ti       1.66635328       2.80604353      33.71193227  F       0.00242756       0.00111462      -0.00445252
Ti       4.95539899       5.27204797      33.62751415  F       0.00432654       0.00307475      -0.00312795
Ti       2.90327419       0.57302212      35.02978871  F      -0.00800899      -0.00341422      -0.00372254
Ti       6.83603426       2.66650772      35.01938815  F      -0.00040439       0.00434595       0.00180214
Ti       0.36572620       0.54085021      36.18872622  F       0.00204556      -0.00023913       0.00453241
Ti       3.64902343       3.00313376      36.16179048  F       0.00320116       0.00374223       0.00226035
Ti       5.33913062       0.75430017      36.56828205  F       0.00389394       0.00605577       0.00566978
Ti       5.77745634       4.85635293      36.54407473  F       0.00341286       0.00345373      -0.00123724
Ti       7.19324352       2.56270194      37.81883879  F      -0.00020794       0.00165560       0.00380249
Ti       2.64165639       0.83612053      37.83124335  F       0.00159959      -0.00297796       0.00529487
Ti       4.56778975       2.69405800      38.75124778  F      -0.00188650      -0.00012549       0.00691256
Ti       4.06557086      -1.36717280      38.77513197  F       0.00073375      -0.00017947       0.00159308
Ti       6.13217070       0.47499955      39.45067736  F       0.00034427       0.00175828      -0.00221809
Ti       5.13025308       5.40626252      39.43278014  F      -0.00320363       0.00053022      -0.00029805
Ti       3.34020079       0.70062286      40.57004440  F       0.00386849       0.00179009       0.00422915
Ti       6.71712516       3.10115834      40.55506032  F       0.00221749       0.00175697       0.00037096
Ti       3.89219073       3.43601677      41.35821170  F       0.00153387       0.00276875       0.00830305
Ti       0.61706404       0.97516814      41.37894704  F      -0.00132863       0.00338853       0.00078138
Ti       5.92023524       5.25810600      42.29716178  F       0.00096066      -0.01048614      -0.00181904
Ti       5.60824775       1.08724519      42.31387857  F      -0.00441496      -0.00409519      -0.00384283
Ti       3.21334546       5.46650913      43.22254268  F       0.00026550      -0.00481639       0.00527799
Ti       2.71490211       1.40234147      43.23876867  F      -0.00066720       0.00115639       0.00258474
Ti       4.79677182       3.24905504      44.03646989  F       0.00258180       0.00848906       0.00154775
Ti       4.42982369      -0.88988279      44.05318599  F       0.00534343       0.00559605       0.00628486
Ti       6.39989078       0.92834893      45.17551539  F      -0.00532446       0.00270445      -0.01026393
Ti       1.61942960      -0.66273308      45.19099689  F       0.00345757      -0.00462415      -0.01084474
Ti       6.96143913       3.64738182      45.82211834  F      -0.01263536      -0.01172469      -0.01141784
Ti       3.69347261       1.18324334      45.83766097  F      -0.00276320      -0.01322049      -0.01150802
Ti       4.35001117       3.75797023      46.78342517  F       0.02231547       0.00711399      -0.01412233
Ti       5.09486328      -1.02287447      46.79902923  F      -0.00120264       0.01996151      -0.01235864
Ti       5.74192921       1.47121696      48.06198278  F       0.04638081      -0.02931045       0.00240730
Ti       2.41970445      -0.96156070      48.07715459  F      -0.04858978       0.02670648       0.00524569
Ti       3.44657505       5.88226130      48.41552501  F      -0.01475986      -0.07429129       0.02737700
Ti       2.96089422       1.81147355      48.43106871  F      -0.05821703      -0.05056719       0.02901359
Ti       4.67639949       3.66475383      49.58877111  F       0.01307468       0.03194316       0.39615835
Ti       4.85268139      -0.78818348      49.60468537  F       0.01917571       0.02836222       0.39856255
Ti       2.13007274       3.60683720      50.93044657  F       0.16609077      -0.02511204       0.47853005
Ti       1.64932804      -0.46657418      50.94623657  F      -0.10371738       0.13538711       0.47871874
Ti       7.09205165       3.83701259      51.05641388  F       0.48743847      -0.13502558       0.16569849
Ti       3.79431195       1.39024641      51.07226475  F      -0.36327235       0.34913983       0.16534131
Ti       4.59957348       3.73425760      52.37651547  F       0.15277536      -0.21788640       0.14396365
Ti       4.95169945      -0.81981175      52.39211940  F      -0.26453542       0.02189950       0.14489233
Ti       3.46813516       5.94014165      53.74054028  F       0.04969003      -0.08484141      -1.40401662
Ti       3.00135684       1.85883211      53.75632968  F      -0.10201690      -0.00271726      -1.40405871
