100
Lattice="4.4265 -2.555641 0.0 3.767997 6.526363 -0.031456 0.0 0.0 61.781652" Properties=species:S:1:pos:R:3:move_mask:L:1:forces:R:3 job_name=BondOrder-VacuumGB-CSL13-Al-Al-53-d-1.39 top_level=BondOrder-VacuumGB solute=Al energy=-757.1454224 stress_kbar_3x3="_JSON [[-34.38631941, -2.4261156, -0.27325879], [-2.42611561, -37.27123268, 0.16975594], [-0.27325881, 0.16975594, -24.57656812]]" pbc="T T T"
Ti       2.48194095      -0.88886818       8.01846549  F       0.11254754      -0.02393312       1.75422524
Ti       5.77503203       1.56106049       8.00286002  F      -0.07625197       0.08387380       1.75485590
Ti       4.99379871      -0.79742382       9.38598978  F       0.41140841      -0.00161833      -0.15098899
Ti       4.59845100       3.78185197       9.37044671  F      -0.20639350       0.35876293      -0.15173924
Ti       7.10793379       3.86808894      10.63210102  F      -0.14830352      -0.04835659      -0.98437246
Ti       3.81403354       1.41896682      10.64789062  F       0.03109214      -0.15473794      -0.98516333
Ti       1.66808755      -0.43552314      10.87642092  F       0.31468264      -0.26725697      -0.12339249
Ti       2.14834288       3.63814467      10.86087814  F      -0.38951830       0.13726862      -0.12218668
Ti       4.73080153       3.65995495      12.16530416  F       0.04574373      -0.12356692      -0.33304694
Ti       4.82249126      -0.74376887      12.18109350  F      -0.13004354      -0.02388089      -0.33462313
Ti       3.44888547       5.87636763      13.25912490  F      -0.08229653       0.03562217       0.04242447
Ti       2.95653390       1.80943122      13.27485393  F       0.07020095      -0.05318710       0.04204946
Ti       2.41272000      -0.95203738      13.75526470  F       0.03983889      -0.04168181       0.00908161
Ti       5.75569828       1.46890616      13.73972167  F      -0.05549547       0.01474096       0.00961452
Ti       4.28593105       3.76346633      14.95536182  F      -0.00371939       0.02042347      -0.02844581
Ti       5.13423358      -1.07708810      14.97127472  F       0.01988324       0.00598557      -0.02878926
Ti       6.92821463       3.59957741      15.85937134  F       0.00040041      -0.00414314      -0.00924570
Ti       3.67172164       1.12922367      15.87485070  F      -0.00388559      -0.00242779      -0.00768422
Ti       6.37933355       0.88863328      16.60891626  F      -0.00516933      -0.00174944       0.00239396
Ti       1.59838578      -0.70164569      16.62377806  F       0.00064352      -0.00550393       0.00272020
Ti       4.78781296       3.18443886      17.68820678  F      -0.00843979       0.00312092       0.00947837
Ti       4.38213088      -0.93228383      17.70498520  F       0.00666623      -0.00414815       0.01008307
Ti       3.17866623       5.41080798      18.48760530  F      -0.00238368       0.00076282       0.00409419
Ti       2.68756045       1.34271723      18.50296522  F       0.00364866      -0.00198373       0.00492341
Ti       5.89582422       5.19690289      19.43216813  F       0.00327944      -0.00722703      -0.00354393
Ti       5.57047732       1.03445998      19.44894415  F      -0.00762181      -0.00121734      -0.00361730
Ti       0.58706429       0.91359783      20.38557974  F      -0.00013205       0.00151208      -0.00456806
Ti       3.85612243       3.37578338      20.36658213  F       0.00350724      -0.00138967      -0.00507593
Ti       3.30746878       0.64310133      21.18978710  F       0.00485511       0.00461026       0.00053112
Ti       6.69128430       3.04206862      21.17460897  F       0.00057462       0.00696918      -0.00045668
Ti       5.08730278       5.34981101      22.27247863  F       0.00464368       0.00080189      -0.00273435
Ti       6.10903978       0.41193483      22.29066729  F      -0.00003141       0.00259033      -0.00461730
Ti       4.53682126       2.63198537      22.98455030  F       0.00337259       0.00229230       0.00554327
Ti       4.02969571      -1.42234882      23.00662813  F       0.00102795       0.00334726       0.00460982
Ti       7.16795137       2.49493296      23.91696743  F       0.00062951      -0.00116886       0.00314490
Ti       2.58913224       0.78097612      23.92715905  F       0.00420443      -0.00194780       0.00118075
Ti       5.71955990       4.77709092      25.15046270  F       0.00848000       0.00386303      -0.00337074
Ti       5.30383544       0.68170763      25.17113896  F       0.00194258       0.00470765      -0.00372632
Ti       3.60678024       2.92055144      25.58200748  F       0.00016760       0.00800909      -0.00401245
Ti       0.32759227       0.47687549      25.60985589  F       0.00194083       0.00292591       0.00115077
Ti       2.88511256       0.47944272      26.71101832  F      -0.00048676       0.00115952      -0.01108945
Ti       6.78561778       2.58972327      26.70575225  F      -0.00093916       0.00462849      -0.00053146
Ti       4.89985111       5.19016825      28.03402995  F       0.00939442       0.00075475      -0.00206630
Ti       1.65554697       2.73923950      28.05861912  F      -0.00481595       0.00981739      -0.00430243
Ti       4.41456330       2.39211630      28.21258566  F       0.01993149       0.00983224      -0.00516986
Ti       3.89985462      -1.68017732      28.25334051  F       0.00018996      -0.00091430       0.00649732
Ti       6.88440902       2.49670411      29.52405237  F       0.00430081       0.01778754      -0.01493651
Ti       2.74540228       0.53268506      29.49339235  F      -0.00218092      -0.01594907       0.01412747
Ti       3.56841610       2.83588618      30.84600501  F       0.01459594       0.01574499       0.00201521
Ti       0.30572348       0.41436125      30.89567140  F       0.00926673       0.01119296      -0.00278435
Ti       5.73441908       4.72535096      30.86993159  F       0.00332621       0.00833285      -0.00083490
Ti       5.24068879       0.65274511      30.87629319  F      -0.01930117      -0.00412403       0.00203263
Ti       2.76138056       0.56032959      32.27164175  F      -0.00332399      -0.02034389      -0.00125980
Al       6.95608210       2.47937546      32.25527048  F       0.00610929       0.00705697       0.01855147
Ti       3.93964347      -1.62054308      33.53531136  F       0.00144493       0.01066452       0.00114932
Ti       4.40694673       2.43328761      33.53277969  F       0.00960937       0.00605136       0.00860992
Ti       1.68521938       2.75841211      33.75438551  F      -0.00160470       0.00627218       0.00396823
Ti       4.95133008       5.25598411      33.75627189  F       0.00218137       0.00979586       0.00133458
Ti       2.93025225       0.53436041      35.06972132  F      -0.00339420      -0.00402111      -0.01273118
Ti       6.80102386       2.64503057      34.99810062  F       0.00166328       0.00055299      -0.01068745
Ti       0.35770068       0.51232112      36.13880296  F      -0.00114799      -0.00099064      -0.01007010
Ti       3.62282488       3.01741543      36.14350616  F       0.00163600       0.00400909      -0.00020280
Ti       5.33999960       0.75354611      36.57804446  F       0.01073485       0.00289057       0.00431889
Ti       5.76396993       4.82545974      36.57683527  F      -0.00070017       0.00667270       0.00488883
Ti       7.19083118       2.56532166      37.82359154  F       0.00116438       0.00137000       0.00545337
Ti       2.58673336       0.85003514      37.84452895  F       0.00382854       0.00734243       0.00786424
Ti       4.55344323       2.68894887      38.74283211  F       0.00089335       0.00319878      -0.00302196
Ti       4.07057413      -1.33662036      38.73256709  F       0.00070033       0.00031652       0.00526051
Ti       6.12792266       0.49024382      39.45952768  F       0.00691612      -0.00065193       0.00131414
Ti       5.12718564       5.39451958      39.44357900  F      -0.00145472       0.00404993      -0.00147145
Ti       3.34128476       0.70690627      40.56124643  F       0.00551520       0.00810808       0.00230899
Ti       6.70005268       3.12346745      40.54945496  F       0.00562413       0.00917820       0.00091606
Ti       3.89932028       3.45514307      41.35207308  F       0.00183897      -0.00122381       0.00558902
Ti       0.61468036       0.98885742      41.35666113  F      -0.00394346       0.00193213       0.00543103
Ti       5.92457829       5.28021598      42.30794636  F       0.00175821      -0.00670979       0.00086456
Ti       5.60375567       1.10135120      42.31797632  F      -0.01131674      -0.00147627       0.00140918
Ti       3.21675778       5.48554522      43.21400266  F      -0.00023408       0.00179910       0.00563822
Ti       2.71583895       1.42884583      43.22687061  F       0.00429766      -0.00077230       0.00379225
Ti       4.79886734       3.27250614      44.03366235  F       0.00497446       0.00419010       0.00269158
Ti       4.44332151      -0.87499883      44.04865573  F       0.00239094       0.00851567       0.00057094
Ti       6.41241407       0.94971278      45.17386748  F      -0.00836332       0.00475614      -0.01140238
Ti       1.61968494      -0.63800201      45.19622018  F       0.00667934      -0.00377273      -0.01138532
Ti       6.97140268       3.67567958      45.81526106  F      -0.01687673      -0.01379703      -0.01634683
Ti       3.70418238       1.20815165      45.82859023  F      -0.00579007      -0.01780978      -0.01390239
Ti       4.36445248       3.77967121      46.78535538  F       0.01926988       0.00847838      -0.01574596
Ti       5.10184359      -0.99461212      46.80058060  F      -0.00045525       0.02392135      -0.01534594
Ti       5.75375744       1.50164041      48.06308375  F       0.04825767      -0.03047873      -0.00858173
Ti       2.43675398      -0.93412567      48.07967645  F      -0.05074990       0.02892753      -0.00906419
Ti       3.46235516       5.91304848      48.41050004  F      -0.01569817      -0.07846135       0.02055708
Ti       2.97699384       1.84159766      48.42672506  F      -0.06327270      -0.05002326       0.01773909
Ti       4.69224702       3.69747740      49.58843440  F       0.01333513       0.02979353       0.39330031
Ti       4.87158112      -0.75737003      49.60490523  F       0.01841055       0.02938310       0.39425400
Ti       2.14943256       3.64189256      50.93089726  F       0.16165296      -0.03020453       0.48208536
Ti       1.66899863      -0.43200281      50.94687371  F      -0.10770622       0.12608134       0.48276837
Ti       7.11172579       3.87124254      51.05470454  F       0.48465676      -0.13544662       0.17607024
Ti       3.81334311       1.42480407      51.07006132  F      -0.36284589       0.35453894       0.17774314
Ti       4.62022371       3.77011686      52.37553958  F       0.13832966      -0.22405073       0.16932774
Ti       4.97203200      -0.78389960      52.39108220  F      -0.26205616       0.01073982       0.16970359
Ti       3.48802594       5.97664822      53.73869869  F       0.05024014      -0.08896294      -1.39171639
Ti       3.02284697       1.89416294      53.75455079  F      -0.10215668      -0.00071693      -1.39219946
