64
Lattice="5.088765 0.0 0.0 0.0 9.739025 0.0 0.0 0.0 38.303587" Properties=species:S:1:pos:R:3:move_mask:L:1:forces:R:3 job_name=BondOrder-VacuumGB-T2-V-V-32-d-0.00 top_level=BondOrder-VacuumGB solute=V energy=-481.56313838 stress_kbar_3x3="_JSON [[-20.64999459, -0.57049751, -0.1239074], [-0.5704975, -21.26268488, 0.12869563], [-0.12390743, 0.12869561, -21.38868683]]" pbc="T T T"
Ti       2.54456570       9.26741271       8.34868813  F       0.86546469       0.02005245       0.95364173
Ti       0.00022391       4.39459868       8.34868813  F       0.85897846       0.02323503       0.95882877
Ti       1.27259835       1.88948772       8.96307766  F      -0.82726561      -0.41826160       0.63530231
Ti       3.81647197       6.75903917       8.96005168  F      -0.83135449      -0.42513992       0.63721728
Ti       2.71315139       4.08290119       9.74336003  F      -0.15855733      -0.08930883       0.12606061
Ti       0.16876380       8.95105023       9.74247905  F      -0.16239813      -0.08949348       0.10880374
Ti       1.03476983       6.22203907      10.47484363  F       0.11242558       0.27014920      -0.67105449
Ti       3.58406299       1.35527298      10.47580122  F       0.11008832       0.26454222      -0.67831870
Ti       0.23309088       3.49972837      11.12458738  F       0.05256352       0.25004645      -0.45537434
Ti       2.77549894       8.36956226      11.11807577  F       0.05007423       0.26204411      -0.45771752
Ti       1.11835280       0.87460340      11.85231723  F      -0.04517489       0.03288334      -0.20502526
Ti       3.65666440       5.74269400      11.85484527  F      -0.04781180       0.03000191      -0.20695700
Ti       2.76945858       3.11203727      12.55928653  F       0.01519049      -0.08287227      -0.04997137
Ti       0.21697476       7.98467599      12.55028519  F       0.02164903      -0.07916680      -0.05854464
Ti       3.61603061       0.44854054      13.20807269  F      -0.00020183       0.04534054      -0.03585410
Ti       1.06551106       5.30965800      13.20868555  F       0.00240243       0.04464639      -0.03258859
Ti       2.76417644       7.51964729      13.92791200  F      -0.00324529      -0.02894597       0.02530615
Ti       0.23178307       2.64861550      13.94691058  F      -0.00633818      -0.03327724       0.02655440
Ti       3.62340423       4.87856005      14.66809052  F       0.00642011       0.01943898      -0.02016622
Ti       1.09718862       0.00824895      14.66058301  F       0.00590311       0.01798654      -0.02731154
Ti       0.22065903       7.07933623      15.32848266  F       0.00722608      -0.00484937       0.00228968
Ti       2.77963611       2.20792462      15.35265222  F       0.00169391      -0.00656543      -0.00415569
Ti       1.12154345       4.46039554      15.99936999  F       0.00425327       0.00292923      -0.01546736
Ti       3.67803212       9.33055081      15.97240426  F       0.00589402       0.01023577       0.00013198
Ti       0.26911425       1.83601073      16.76402449  F      -0.01548722      -0.00712404      -0.00342898
Ti       2.77943256       6.72935463      16.75295476  F      -0.02028720       0.00259465      -0.00173879
Ti       1.00559085       8.86733357      17.39538252  F      -0.00613039       0.01003894       0.00178751
Ti       3.54905737       3.97768076      17.38247421  F      -0.01204361       0.01013116       0.00182509
Ti       2.87538122       1.18099313      18.17014917  F       0.00736277       0.00079363      -0.00804742
Ti       0.19129177       6.07035376      18.12322728  F       0.01044298      -0.01815136      -0.00243728
Ti       3.82641033       8.26422497      18.93150957  F       0.01823991      -0.01361587      -0.00542104
Ti       1.27869469       3.32902274      18.92530439  F       0.01037644      -0.01178484       0.00547517
V        0.00008142       0.82362934      19.50020293  F       0.00111876      -0.01447785      -0.00564201
Ti       2.54444357       5.73073448      19.50027953  F       0.00300779      -0.00640238      -0.00301714
Ti       3.81025350       3.32904222      20.07525468  F      -0.00483829      -0.02391841      -0.00271676
Ti       1.26247680       8.26432236      20.06908780  F      -0.00801526      -0.02123171       0.00717262
Ti       2.21338887       1.18106130      20.83044820  F      -0.01372348       0.01632999       0.00061299
Ti       4.89747323       6.07053880      20.87740840  F      -0.01820683       0.00102599      -0.00913709
Ti       1.53980940       3.97775868      21.61808486  F       0.02024293      -0.00967246      -0.00294182
Ti       4.08328101       8.86744070      21.60513825  F       0.01166059      -0.00609336      -0.00424677
Ti       4.81982886       1.83600099      22.23657288  F       0.00595482       0.00738735       0.01074342
Ti       2.30945458       6.72940332      22.24768092  F       0.00642404       0.01505709       0.01035385
Ti       1.41082447       9.33051186      23.02819311  F       0.01682176      -0.00515595       0.00070958
Ti       3.96732332       4.46037606      23.00118908  F       0.01147295      -0.01366718       0.01178600
Ti       4.86818230       7.07929727      23.67203811  F      -0.01027807       0.02285209       0.04229141
Ti       2.30924085       2.20787592      23.64786854  F      -0.00655522       0.02175093       0.03926646
Ti       1.46547781       4.87841397      24.33246855  F      -0.02994753      -0.01226363       0.00139602
Ti       3.99167306       0.00816130      24.34001436  F      -0.03481368      -0.01261272       0.00117773
Ti       2.32463436       7.51953042      25.07260876  F       0.01671592      -0.00517849       0.02409337
Ti       4.85705826       2.64849863      25.05361018  F       0.01687343      -0.01626838       0.01495872
Ti       4.02336589       5.30952165      25.79183522  F       0.06410643      -0.00407930       0.15429577
Ti       1.47285143       0.44846262      25.79252468  F       0.06920426      -0.00818764       0.15668767
Ti       4.87183604       7.98454939      26.45042709  F      -0.12561404      -0.00669701       0.18688639
Ti       2.31937767       3.11191066      26.44131084  F      -0.12513006      -0.01212018       0.17835201
Ti       1.43220747       5.74267453      27.14575211  F       0.11691361       0.15840286       0.45602991
Ti       3.97053942       0.87456444      27.14828014  F       0.11749738       0.15698604       0.45892111
Ti       2.31356630       8.36929931      27.88248330  F       0.13034222       0.30321385       0.38043204
Ti       4.85599980       3.49940698      27.87597169  F       0.13349762       0.29949655       0.38499071
Ti       1.50482923       1.35484446      28.52491106  F      -0.25011616       0.13758578       0.14083857
Ti       4.05405624       6.22159108      28.52583035  F      -0.25912334       0.14220969       0.13621552
Ti       4.91978238       8.95040745      29.25785020  F      -0.78349564      -0.58453415      -0.58231475
Ti       2.37541515       4.08228763      29.25693091  F      -0.78804298      -0.59187892      -0.59613024
Ti       3.81658902       1.88921503      30.03748141  F       0.83951863       0.03401053      -1.06654746
Ti       1.27265942       6.75873726      30.04043078  F       0.84617405       0.02959747      -1.06916193
