64
Lattice="5.871999 0.0 0.0 0.0 6.890708 0.0 0.0 0.0 43.401158" Properties=species:S:1:pos:R:3:move_mask:L:1:forces:R:3 job_name=BondOrder-VacuumGB-T1m-Al-Al-44-d-4.84 top_level=BondOrder-VacuumGB solute=Al energy=-482.07478331 stress_kbar_3x3="_JSON [[-18.42913532, 0.0001093, 0.00040688], [0.00010929, -26.86538412, 0.56667028], [0.00040691, 0.56667026, -16.89889257]]" pbc="T T T"
Ti       2.92621088       0.10814277      34.54376287  F       0.00998479      -0.27951028      -0.16844487
Ti       2.93352739       2.94366911      34.54159282  F      -0.00722750       0.13738971      -0.96763028
Ti       0.00985321       0.10811521      34.54380627  F      -0.00995038      -0.27933791      -0.16895278
Ti       0.00253670       2.94366222      34.54163622  F       0.00718777       0.13725476      -0.96788267
Ti       4.40399925       5.03167078       8.55241519  F       0.00007401      -0.01940614       0.92481403
Ti       1.46805847       5.03328321       8.55801394  F      -0.00035527      -0.01409874       0.91352506
Ti       4.40401099       1.32026654       9.16706239  F       0.00003242      -0.25843195       0.15807631
Ti       1.46805260       1.32208569       9.17721826  F      -0.00000874      -0.27523092       0.12683623
Ti       2.93870649       3.41361540      10.35035156  F       0.00164018       0.13422283      -0.24469476
Ti       5.86933898       3.41361540      10.35039496  F      -0.00160299       0.13426438      -0.24488294
Ti       2.93611107       6.23046792      10.76075291  F       0.00191178       0.13619333      -0.55072082
Ti       5.87194028       6.23048170      10.76075291  F      -0.00199537       0.13624958      -0.55076180
Ti       1.46802324       1.49148686      11.98323333  F      -0.00000676      -0.02084209      -0.00857587
Ti       4.40399925       1.49046703      11.97837240  F       0.00002998      -0.01857074      -0.00091134
Ti       1.46802911       4.44285978      12.58468658  F      -0.00004438      -0.00234096       0.05398397
Ti       4.40400512       4.44115089      12.58269012  F       0.00002038      -0.00383880       0.05841432
Ti       2.93440232       6.59484856      13.74718659  F       0.00265746       0.04860994      -0.10803001
Ti       0.00159718       6.59484167      13.74718659  F      -0.00262087       0.04869538      -0.10791264
Ti       2.93465481       2.52040048      14.24881718  F       0.00037808       0.01052968       0.03554694
Ti       0.00136818       2.52040737      14.24881718  F      -0.00040999       0.01038309       0.03548024
Ti       4.40399925       4.67084575      15.40563164  F      -0.00006438      -0.02529538      -0.00539724
Ti       1.46799388       4.67460807      15.40923394  F       0.00005513      -0.02681649      -0.00407427
Ti       4.40398751       0.73860121      16.00361280  F       0.00010729       0.00008452      -0.03021000
Ti       1.46800562       0.73587249      16.02509637  F      -0.00008723      -0.00308296      -0.02808971
Ti       0.00012331       2.89022478      17.24354048  F      -0.00077308      -0.00391330      -0.00934319
Ti       2.93585270       2.89020411      17.24354048  F       0.00084712      -0.00376157      -0.00923162
Ti       0.00895480       5.70766302      17.63506233  F       0.00085818       0.02083070       0.03357560
Ti       2.92702709       5.70766302      17.63506233  F      -0.00083742       0.02087109       0.03357625
Ti       1.46794690       0.91030387      18.84469600  F       0.00021166      -0.00837637      -0.00292334
Ti       4.40402861       0.89793505      18.80524435  F      -0.00015635      -0.00327936       0.00578512
Ti       1.46795277       4.09618826      19.43751242  F       0.00029887       0.00077621      -0.01401424
Ti       4.40401687       4.10782667      19.44523782  F      -0.00017089       0.00884839      -0.00935809
Ti       2.98173063       2.14382329      20.84401375  F      -0.00047354       0.01001446      -0.00172562
Ti       5.82626787       2.14380951      20.84401375  F       0.00042056       0.01016779      -0.00174912
Ti       2.95350980       6.18489278      20.84796325  F      -0.00231008      -0.00696399      -0.00439094
Ti       5.85445934       6.18489967      20.84800665  F       0.00230942      -0.00685360      -0.00449287
Ti       4.40403448       4.08813302      22.29178957  F      -0.00011369       0.00575391      -0.00063637
Ti       1.46798213       4.10462938      22.27898623  F       0.00006278       0.00143131      -0.00921975
Ti       4.40404035       0.90623146      22.89389384  F      -0.00001694      -0.00441257      -0.01272525
Ti       1.46795277       0.88436036      22.79754327  F       0.00008654      -0.01283512       0.00472612
Ti       2.92770824       5.72187166      24.07253909  F      -0.00671115      -0.00058844       0.01006161
Ti       0.00830888       5.72187166      24.07253909  F       0.00671562      -0.00052717       0.01013342
Ti       2.95800188       2.84866003      24.45386166  F      -0.00326862       0.00025435       0.00101932
Ti       5.85000249       2.84866692      24.45386166  F       0.00332939       0.00022367       0.00115810
Al       4.40399925       0.70221138      25.69296472  F       0.00010247      -0.02248773      -0.00463976
Ti       1.46802911       0.69131028      25.63736784  F      -0.00012104       0.00441669      -0.00361457
Ti       4.40401099       4.71901179      26.29762966  F       0.00002235      -0.00113769      -0.01659093
Ti       1.46802911       4.59894810      26.27223998  F      -0.00004258       0.03080282      -0.01138265
Ti       5.84277406       2.48837936      27.43135470  F      -0.00493507      -0.01559416       0.01648660
Ti       2.96528316       2.48834491      27.43135470  F       0.00489636      -0.01540959       0.01633209
Ti       5.85221624       6.59757039      27.93663099  F       0.00867371       0.00917864      -0.00948623
Ti       2.95581750       6.59758417      27.93663099  F      -0.00858355       0.00910564      -0.00934507
Ti       1.46808196       4.44701488      29.08276877  F      -0.00016811      -0.03833036      -0.01600613
Ti       4.40397576       4.45227249      29.09396627  F       0.00022157      -0.05485611      -0.03466506
Ti       1.46808783       1.49551792      29.69676495  F      -0.00031047       0.01395831      -0.00768219
Ti       4.40399925       1.50814170      29.74125114  F       0.00016001       0.02047562      -0.02565951
Ti       2.92955205       6.22663669      30.91065194  F      -0.00320375       0.00462859       0.03374584
Ti       0.00654728       6.22665736      30.91069534  F       0.00318345       0.00464846       0.03368537
Ti       2.93490731       3.42122963      31.33780613  F      -0.01577371       0.01560876      -0.04837919
Ti       0.00117440       3.42120896      31.33776273  F       0.01577912       0.01551823      -0.04832494
Ti       4.40399925       1.32239577      32.52660725  F       0.00024384      -0.07914184       0.70510237
Ti       1.46808196       1.31857143      32.49865691  F      -0.00020577      -0.07208373       0.69636739
Ti       4.40397576       5.03817561      33.12879832  F       0.00023351       0.22024237       0.28439932
Ti       1.46809370       5.03909207      33.13387626  F      -0.00018615       0.21572291       0.27992697
