52
Lattice="5.088765 0.0 0.0 0.0 5.495746 0.0 0.0 0.0 32.722931" Properties=species:S:1:pos:R:3:forces:R:3 job_name=C1-Al-Al-27-d-1.38 GB_type=C1 element=Al system=Al-27-d-1.38 distance=1.38 energy=-399.05653242 stress_kbar_3x3="_JSON [[-36.15333364, -1.64872104, -0.08216719], [-1.64872103, -28.91580905, -4.81660401], [-0.08216716, -4.81660402, -20.43270418]]" pbc="T T T"
Ti       2.63009324       0.73745265      32.61317653       0.00092239      -0.00471260      -0.00135939
Ti       0.13512586       1.69856351       1.34983374       0.00735133       0.00567416      -0.00059381
Ti       0.81523377       4.45218959       1.39834331      -0.00229742       0.00653477       0.00416082
Ti       2.52735377       2.44479685       2.64379700      -0.00112051       0.00632032       0.00665572
Ti       3.35612164       5.20307940       2.57510371      -0.00003719       0.00624866       0.00018646
Ti       0.77028624       0.46190877       3.85112415       0.00143889       0.00293531      -0.00211124
Ti       5.08429136       3.20865328       3.80637787      -0.00270223       0.00487299      -0.00278247
Ti       3.35299252       1.27728976       5.10745111      -0.00282066       0.00544329      -0.00097929
Ti       2.56766843       4.02615868       5.06977815       0.00330599       0.00684721      -0.00277732
Ti       5.06886391       4.80183139       6.35352929      -0.00049530       0.00543894       0.00027942
Ti       0.80550957       2.07381773       6.30829371      -0.00083358       0.00377780      -0.00064438
Ti       3.32206177       2.84384815       7.59806562       0.00001438       0.00263555      -0.00132604
Ti       2.51651467       0.09551773       7.56033457      -0.00092082       0.00388034       0.00091598
Ti       0.81049919       3.66825005       8.84371286       0.00203805       0.00375035       0.00321227
Ti       0.01216296       0.91878508       8.80675005      -0.00311670       0.00447040      -0.00304695
Ti       2.52126461       1.69883962      10.10382715       0.00134303       0.00579340      -0.00157855
Ti       3.35118992       4.46831655      10.04426365      -0.00043906       0.00817143      -0.00316159
Ti       0.75397299       5.24921755      11.33459420      -0.00209895       0.00725303      -0.00500783
Ti       5.05009895       2.49725010      11.29507423       0.00006462       0.00344538      -0.00426867
Ti       3.33576982       0.57928330      12.61467498       0.00064011       0.00305202      -0.00306598
Ti       2.56977916       3.32564606      12.52231320       0.00261248       0.00058321      -0.00323208
Ti       0.00623457       4.10051294      13.84577139      -0.00176960       0.01094028      -0.00552386
Ti       0.80648990       1.38514071      13.77531719      -0.00016781      -0.00070866       0.00181489
Ti       2.45180235       4.90487499      15.02169868       0.00385099       0.01775284       0.00676799
Ti       3.25586499       2.19577121      15.04116817       0.01349646       0.00859511      -0.00062833
Ti       0.77350915       2.87013582      16.49267164      -0.00070398      -0.00322351      -0.00430070
Ti       0.03718141       0.14244629      16.18371232      -0.00589988       0.00254940       0.00377185
Al       3.35496420       1.72004443      17.73946733      -0.01139562       0.00485669       0.01178488
Ti       2.89112088       4.46010359      17.63058643      -0.00428838       0.00422614      -0.00578758
Ti       4.99346351       3.63591586      19.11092639       0.00630122      -0.01017479       0.01232246
Ti       0.83239928       0.81046283      18.85708826       0.00199925      -0.01290010      -0.00054421
Ti       3.41638829       0.27559684      20.17562761       0.00045542      -0.01103844       0.00916182
Ti       2.43991670       3.03373375      20.04314420      -0.00534042      -0.00400356       0.00999693
Ti       0.89350800       4.95940125      21.44575719       0.00136399      -0.00336242       0.00177427
Ti       0.13201178       2.18840946      21.42339683      -0.00252150      -0.00204198       0.00484951
Ti       2.59214500       1.41834677      22.69929673      -0.00046481      -0.00775045      -0.00046191
Ti       3.42680818       4.13625228      22.57158407      -0.00020282      -0.00289658      -0.00316344
Ti       0.02140235       0.66039004      23.89212602      -0.00024388      -0.00508521      -0.00306473
Ti       0.85945869       3.42966870      23.92234978       0.00051043      -0.00722241      -0.00540958
Ti       3.43117285       2.63121010      25.15484213      -0.00079114      -0.00652759      -0.00221221
Ti       2.62360479       5.36959522      25.11548540       0.00223384      -0.00390448      -0.00260215
Ti       0.87540303       1.83827938      26.37996514       0.00102191      -0.00581603       0.00586779
Ti       0.05916586       4.59893621      26.42453924       0.00011323      -0.00378006       0.00423271
Ti       2.58158477       3.82757802      27.62283157      -0.00065430      -0.00582389       0.00188998
Ti       3.39139697       1.07951060      27.65048518      -0.00008266      -0.00608983       0.00303338
Ti       0.85884026       0.28986266      28.90852231       0.00056430      -0.00400053      -0.00097646
Ti       0.07867494       3.03672796      28.86107013       0.00073230      -0.00665784      -0.00160331
Ti       2.61166161       2.27492252      30.14412246       0.00093825      -0.00665092      -0.00562992
Ti       3.39989376       5.01028757      30.10878536      -0.00080429      -0.00504324      -0.00486117
Ti       0.80022701       4.23488583      31.36412242       0.00115025      -0.00741663      -0.00578719
Ti       0.01254023       1.49488770      31.32226244      -0.00074150      -0.00783693      -0.00672495
Ti       3.29754449       3.50431749       0.06706289      -0.00150809      -0.00138034       0.00253818
