52
Lattice="5.088765 0.0 0.0 0.0 5.495746 0.0 0.0 0.0 32.722931" Properties=species:S:1:pos:R:3:forces:R:3 job_name=C1-Al-Al-30-d-2.59 GB_type=C1 element=Al system=Al-30-d-2.59 distance=2.59 energy=-399.17745314 stress_kbar_3x3="_JSON [[-37.78539076, 0.17491985, 0.65522678], [0.17491984, -28.08363945, -1.59426452], [0.65522677, -1.59426453, -20.98717885]]" pbc="T T T"
Ti       2.62401184       0.79473576      32.71085317       0.00365000       0.00035627      -0.00252382
Ti       0.03740162       1.60261198       1.37695977       0.00165308       0.00001732      -0.00822364
Ti       0.82186300       4.35025152       1.37916936       0.00261114       0.00229135      -0.00794649
Ti       2.56746286       2.35867621       2.59511130       0.00444186       0.00027041      -0.00130277
Ti       3.36636275       5.10587684       2.59048858       0.00012019       0.00279036      -0.00047989
Ti       0.81192654       0.38660554       3.84044493       0.00015057       0.00060484       0.00282208
Ti       0.03550806       3.13608854       3.83386501       0.00244729      -0.00097482       0.00337466
Ti       3.37472211       1.18405196       5.08220279      -0.00080259       0.00089383       0.00687631
Ti       2.57166009       3.93145642       5.08187024      -0.00018582       0.00180774       0.00283642
Ti       0.01232982       4.70543649       6.33081605      -0.00030286       0.00313664       0.00081798
Ti       0.83729193       1.95998630       6.32413039       0.00208702       0.00019341       0.00171637
Ti       3.37574294       2.73799426       7.57893872      -0.00190518       0.00526046      -0.00463096
Ti       2.56457503       5.48604817       7.56699773      -0.00270162       0.00623086      -0.00025517
Ti       0.83572681       3.54439758       8.82735055      -0.00444146       0.00589952       0.00279945
Ti       0.03195771       0.79326939       8.82175722      -0.00088404       0.00296809      -0.00305109
Ti       2.56013833       1.58273746      10.07829908       0.00328544       0.00166989       0.00058260
Ti       3.38111718       4.33944830      10.06727439      -0.00137447       0.00560952       0.00355345
Ti       0.82422861       5.10987184      11.32532459      -0.00070391       0.00292488      -0.00025385
Ti       0.01398714       2.35704318      11.30498202      -0.00407047      -0.00058973      -0.00217951
Ti       3.36424369       0.41510179      12.57025609      -0.00047249       0.00107734       0.00223025
Ti       2.58845857       3.15687875      12.54225780       0.00357754      -0.00220382      -0.00177827
Ti       0.03730241       3.94207014      13.82155427      -0.00101001       0.00512192       0.00086751
Ti       0.81248460       1.21110241      13.79776891       0.00201829       0.00653754       0.00081217
Ti       2.52228389       4.74605520      15.00281474      -0.00206957       0.01358366      -0.00190740
Ti       3.35901563       2.01607722      15.04146281      -0.00301063       0.00456632       0.00098198
Ti       0.76319947       2.76396571      16.43517631       0.00018734      -0.01366703      -0.00052935
Ti       0.03946438       5.46629407      16.33758598      -0.00995595      -0.00135490      -0.00743972
Ti       3.35102957       1.86236524      17.76145872       0.00453036      -0.01043389      -0.00235547
Ti       2.58406683       4.59616774      17.72534667      -0.00214652       0.00528902      -0.01058264
Ti       5.05625627       3.89627640      18.97260780      -0.01333622      -0.00304021       0.00732285
Al       0.79940349       1.13764387      18.88667133      -0.00037576      -0.00429087       0.00693339
Ti       3.31913429       0.39582433      20.15909573      -0.00346285      -0.00931084       0.00935145
Ti       2.49954486       3.10421933      20.16264063       0.00004985      -0.00362119       0.00189720
Ti       0.84384225       5.08103441      21.38791711      -0.00252751       0.00464392       0.00408613
Ti       0.02829012       2.32917368      21.38392199       0.00348912      -0.00310012       0.00044331
Ti       2.57897138       1.55555594      22.68838749       0.00189462      -0.00575312      -0.00366385
Ti       3.40341856       4.30824919      22.62394090       0.00383549      -0.00101990      -0.00142801
Ti       0.02500009       0.78493603      23.89778615      -0.00573788      -0.00768806      -0.00482506
Ti       0.83303956       3.53578120      23.87638206       0.00338034      -0.00411979      -0.00741337
Ti       3.38987916       2.74336885      25.14872960       0.00160105      -0.00504940      -0.00465890
Ti       2.58119586       5.47853865      25.14016552       0.00355182      -0.00072109      -0.00528643
Ti       0.85638043       1.95828192      26.38354672      -0.00098841      -0.00474653      -0.00443359
Ti       0.03542451       4.70276897      26.38891929       0.00577059      -0.00201406      -0.00224567
Ti       2.58154635       3.92654801      27.63788697      -0.00135411       0.00359507      -0.00065992
Ti       3.38668122       1.18066630      27.62989209      -0.00321918      -0.00465091       0.00017303
Ti       0.82529205       0.38772246      28.87999303       0.00190116       0.00168908       0.00208269
Ti       0.04706469       3.13244890      28.87232592       0.00298657       0.00215659       0.00339847
Ti       2.58329435       2.35937938      30.12067667       0.00299111      -0.00628508       0.01187995
Ti       3.37846520       5.10566269      30.12247335       0.00640828       0.00177671       0.00522364
Ti       0.82252616       4.34803966      31.33804900      -0.00521502       0.00330587       0.00412027
Ti       0.03700612       1.60270498      31.33660196       0.00255714      -0.00351233       0.00402777
Ti       3.31571879       3.54290564       0.00507648       0.00107729       0.00187925      -0.00115653
