52
Lattice="5.088765 0.0 0.0 0.0 5.495746 0.0 0.0 0.0 32.722931" Properties=species:S:1:pos:R:3:forces:R:3 job_name=C1-Cu-Cu-27-d-1.38 GB_type=C1 element=Cu system=Cu-27-d-1.38 distance=1.38 energy=-398.08475629 stress_kbar_3x3="_JSON [[-39.24459249, -1.80255704, 0.50740326], [-1.80255702, -33.36538065, -3.2921411], [0.50740325, -3.29214112, -26.7895101]]" pbc="T T T"
Ti       2.63809319       0.78539426      32.69121105       0.00099617      -0.00246330      -0.00452360
Ti       0.05741670       1.59702346       1.37528592       0.00209884       0.00095234      -0.00473911
Ti       0.83743532       4.34895490       1.38153873       0.00112388       0.00126879      -0.00255027
Ti       2.57658791       2.35598637       2.60425985      -0.00318429       0.00112118      -0.00640977
Ti       3.37044150       5.10637946       2.59779712      -0.00290897       0.00165150      -0.00658269
Ti       0.82094705       0.38813148       3.86243285      -0.00085009       0.00243887      -0.00460123
Ti       0.05068017       3.13710476       3.83654170      -0.00244079       0.00257149      -0.00419682
Ti       3.38815741       1.19086687       5.09484770      -0.00457727       0.00277130       0.00171481
Ti       2.58875891       3.93129021       5.10407667      -0.00355359       0.00303301       0.00005933
Ti       0.01185337       4.70627650       6.35397409       0.00029420       0.00229215       0.00376003
Ti       0.82994737       1.97055318       6.33943729      -0.00126390       0.00245400       0.00492903
Ti       3.37117731       2.74676947       7.62995404      -0.00234699       0.00497886       0.00182215
Ti       2.57370470      -0.00067505       7.56824342      -0.00367937       0.00420155       0.00381848
Ti       0.84990935       3.57069757       8.85376397      -0.00253565       0.00457122       0.00049843
Ti       0.05332451       0.80601659       8.85420025      -0.00351648       0.00811153      -0.00378625
Ti       2.53047638       1.58715848      10.13627257      -0.00283417       0.00714222      -0.00096966
Ti       3.36140969       4.36831348      10.08743366      -0.00464293       0.00700103      -0.00352001
Ti       0.77590782       5.13033866      11.41529609       0.00064848       0.00816995      -0.00204094
Ti       5.07975550       2.38324549      11.28507122       0.00097743       0.00569625       0.00252720
Ti       3.36455633       0.49689477      12.66095854      -0.00546583       0.00643467       0.00123179
Ti       2.61792380       3.20405118      12.58124373      -0.00228473       0.00039025       0.00174614
Ti       5.02201496       3.99888993      13.89037520      -0.00333481       0.00769345       0.00222458
Ti       0.78495728       1.31088614      13.78725879      -0.00095394       0.00624057       0.01145050
Ti       2.41274525       4.75357565      14.95813163      -0.00086382       0.00850262       0.01218647
Ti       3.17514925       2.01319595      15.28744552       0.00235168       0.01175690      -0.00523488
Ti       0.70960745       2.90978031      16.54055016       0.00496456      -0.00772743      -0.00415560
Ti       0.06878202       0.12709520      16.15639513       0.00416234       0.00149432      -0.00169065
Cu       3.43405902       1.81813293      17.85793918      -0.00219281       0.00000188       0.00219955
Ti       2.90296704       4.54760974      17.55746931      -0.00370294      -0.00033730      -0.00209012
Ti       5.00457427       3.79687194      19.08267457       0.01001895      -0.00910356       0.00322127
Ti       0.77687124       0.97439185      18.76984032       0.00115628      -0.00912838       0.00260810
Ti       3.39599624       0.32463767      20.14853913       0.00279964      -0.00107891       0.00134566
Ti       2.41496349       3.10421982      19.98386998      -0.00793809      -0.00722750       0.00257488
Ti       0.88113573       5.09275681      21.39070681      -0.00066714      -0.00696909      -0.00243016
Ti       0.10412516       2.31950654      21.37676351       0.00034464      -0.00069954      -0.00582631
Ti       2.57409126       1.51872296      22.66348760       0.00185925      -0.00718517       0.00080543
Ti       3.38438404       4.23569687      22.51894488       0.00021245      -0.00512226      -0.00302027
Ti      -0.00080952       0.75171048      23.85374134       0.00308068      -0.00661137       0.00221539
Ti       0.82711033       3.52227522      23.88805715       0.00243872      -0.00281558       0.00224058
Ti       3.40789485       2.72499198      25.11890483       0.00467926      -0.00707035       0.00095882
Ti       2.60023038       5.45979899      25.07901517       0.00027528      -0.00358394       0.00080968
Ti       0.84928470       1.93424795      26.34465637       0.00153205      -0.00529218      -0.00367551
Ti       0.04054017       4.68698836      26.38973891       0.00294090      -0.00311555      -0.00462406
Ti       2.56418731       3.91101208      27.60490917       0.00298012      -0.00350475      -0.00312559
Ti       3.36962746       1.16791309      27.61487104       0.00277549      -0.00370289      -0.00370457
Ti       0.83139481       0.38135051      28.87555901       0.00281662      -0.00357202      -0.00064127
Ti       0.05296764       3.12257466      28.84750380       0.00337879      -0.00427906      -0.00062519
Ti       2.58988960       2.35668550      30.11725656       0.00239836      -0.00290230       0.00498970
Ti       3.38393966       5.10073862      30.09700428       0.00445252      -0.00120309       0.00369668
Ti       0.80637469       4.34328806      31.33453538      -0.00049711      -0.00299581       0.00595669
Ti       0.03185228       1.59583727      31.32554881      -0.00094737      -0.00323436       0.00110066
Ti       3.32509680       3.53274964       0.02067199      -0.00057447      -0.00201623       0.00207251
