52
Lattice="5.088765 0.0 0.0 0.0 5.495746 0.0 0.0 0.0 32.722931" Properties=species:S:1:pos:R:3:forces:R:3 job_name=C1-Cu-Cu-28-d-1.38 GB_type=C1 element=Cu system=Cu-28-d-1.38 distance=1.38 energy=-398.08711841 stress_kbar_3x3="_JSON [[-39.30995548, 1.82409887, -0.3614685], [1.82409886, -33.61225577, -3.57296783], [-0.36146847, -3.57296782, -27.0694559]]" pbc="T T T"
Ti       2.60846289       0.78686324       0.02422137       0.00551126      -0.00594013       0.00917684
Ti       0.01006179       1.60180351       1.38273748      -0.00151207       0.00117730      -0.00130897
Ti       0.79206860       4.34464609       1.37484989      -0.00232588       0.00352886      -0.00428674
Ti       2.56888765       2.35836554       2.59607268       0.00201701       0.00545498      -0.00252300
Ti       3.36426871       5.10388161       2.60214515       0.00075591       0.00255007      -0.00230788
Ti       0.79957090       0.38899616       3.83244777       0.00326341       0.00392813      -0.00232570
Ti       0.02946492       3.13726810       3.86071857       0.00537268       0.00459028      -0.00173302
Ti       3.35260743       1.18617282       5.10080100      -0.00041103       0.00580947       0.00027020
Ti       2.55350077       3.94341523       5.09204372       0.00205514      -0.00008208       0.00102895
Ti       0.02261649       4.72251558       6.33550484       0.00012276       0.00495571       0.00024999
Ti       0.84264448       1.96274811       6.35000451      -0.00306929       0.00246024       0.00315065
Ti       3.36887794       2.75093866       7.56214389       0.00129688       0.00443953       0.00560517
Ti       2.57279333       0.00558264       7.62655905       0.00018635       0.00438966       0.00106419
Ti       0.79738062       3.56309608       8.84945381       0.00293075       0.00273676       0.00622828
Ti       0.00408936       0.83334550       8.85032545       0.00321879       0.00394940       0.01066327
Ti       2.57778149       1.63196212      10.08320701       0.00315870       0.00062358       0.00457437
Ti       3.41183156       4.34655495      10.13368684      -0.00191641       0.00688398       0.00741415
Ti       0.86290880       5.14021908      11.28079072       0.00080299       0.00648297       0.00079741
Ti       0.07593383       2.39175055      11.41189030       0.00164555       0.00329948      -0.00857761
Ti       3.31919972       0.46500505      12.57757768       0.00294578      -0.00177674      -0.00688691
Ti       2.57737702       3.25564110      12.65985553       0.00135850       0.00739313      -0.00606577
Ti       0.06399102       4.07144678      13.79288006       0.00646552       0.00576775       0.00357782
Ti       0.91806530       1.26408159      13.88569046       0.00235763       0.00330102      -0.00388702
Ti       2.74857050       4.76691219      15.28215976       0.00110621       0.00832355      -0.00183418
Ti       3.52603894       2.01229424      14.95861370      -0.00695019       0.01439995       0.00951559
Ti       0.77932072       2.87374165      16.16042546       0.00463323       0.01310320       0.00986400
Ti       0.13019971       0.15111721      16.53515951       0.00293955      -0.01039834      -0.00030057
Ti       3.03934060       1.79877886      17.56120758      -0.00170367      -0.00111453      -0.00728179
Cu       2.51033538       4.56195804      17.85371543      -0.00698211      -0.00758899       0.00241188
Ti       0.07610062       3.71429695      18.77722781       0.00164047      -0.01349179      -0.01138459
Ti       0.93132472       1.04149595      19.08080593      -0.00258022      -0.00537883      -0.00394624
Ti       3.52470220       0.34964833      19.98556788       0.00206245      -0.00500763      -0.00116039
Ti       2.53523159       3.06452687      20.14915655      -0.00206457      -0.00124981      -0.00033412
Ti       0.74643065       5.06367310      21.37881630      -0.00465063      -0.01200394      -0.00286400
Ti       5.05754518       2.34197270      21.38503955      -0.00443204       0.00019497       0.00336700
Ti       2.55644004       1.48296582      22.52357396      -0.00013010      -0.00195382       0.00170853
Ti       3.35860149       4.25654970      22.66246801      -0.00059843      -0.01066878       0.01308978
Ti       0.01093848       0.76274032      23.89284180       0.00188520       0.00084873       0.00516484
Ti       0.84261111       3.48893237      23.85564971       0.00419493      -0.00346530       0.00674488
Ti       3.33192234       2.70684402      25.08568663      -0.00419608       0.00235227      -0.00632578
Ti       2.52081680       5.46393968      25.11656741      -0.00060546      -0.00517913       0.00443919
Ti       0.80341588       1.93303325      26.39337629       0.00030720      -0.00307041      -0.01004024
Ti       5.08304918       4.67554377      26.34887796       0.00175140      -0.00647648      -0.00985298
Ti       2.56124339       3.90971132      27.62186293      -0.00005641      -0.00142739      -0.01015580
Ti       3.36592229       1.15685884      27.60609268      -0.00045360      -0.00446268      -0.00591318
Ti       0.79028623       0.36882559      28.85479752      -0.00437768      -0.00302101      -0.00659681
Ti       0.01100785       3.12326248      28.88025344      -0.00415770      -0.00310974      -0.00336491
Ti       2.54917047       2.35090415      30.10054220      -0.00313721      -0.00322940       0.00294105
Ti       3.34623759       5.10089011      30.12294482      -0.00474673      -0.00234005       0.00096054
Ti       0.81546982       4.34164433      31.32556387       0.00172214      -0.00083379       0.00754523
Ti       0.04146850       1.59482060      31.34060918      -0.00384321      -0.00443511       0.00479163
Ti       3.29757727       3.53472230      32.69099437      -0.00280767      -0.00523908      -0.00508725
