52
Lattice="5.088765 0.0 0.0 0.0 5.495746 0.0 0.0 0.0 32.722931" Properties=species:S:1:pos:R:3:forces:R:3 job_name=C1-Cu-Cu-30-d-2.59 GB_type=C1 element=Cu system=Cu-30-d-2.59 distance=2.59 energy=-398.11882207 stress_kbar_3x3="_JSON [[-42.91522539, -0.25917753, -0.0736539], [-0.25917756, -34.61566442, -2.78111068], [-0.0736539, -2.78111065, -28.18715772]]" pbc="T T T"
Ti       2.63080260       0.79113415      32.69150271       0.00114532       0.00036532      -0.00149153
Ti       0.04596007       1.60689934       1.37013847       0.00146681       0.00224125      -0.00849913
Ti       0.82519727       4.35585211       1.37754679       0.00108627       0.00320818      -0.00821016
Ti       2.57008045       2.36075085       2.59694669       0.00072269       0.00189876      -0.00665702
Ti       3.36784306       5.10867248       2.59199793       0.00128028       0.00300562      -0.00669753
Ti       0.81075599       0.39150315       3.84620087       0.00025474       0.00314174      -0.00072190
Ti       0.03966998       3.13894303       3.83900505       0.00026744       0.00291196      -0.00104138
Ti       3.37241699       1.19202110       5.09358171      -0.00029943       0.00459089       0.00129088
Ti       2.57456409       3.93792035       5.09232000       0.00029212       0.00465152       0.00038684
Ti       0.01603321       4.71446611       6.34326617       0.00043054       0.00610532       0.00093046
Ti       0.83505832       1.96984316       6.34094212      -0.00000428       0.00627760       0.00064526
Ti       3.37408194       2.75231762       7.59739336      -0.00036597       0.00604489       0.00436322
Ti       2.57150263       0.00347626       7.58536497       0.00013048       0.00597718       0.00483846
Ti       0.83200512       3.56330221       8.84568735      -0.00008222       0.00551897       0.00554345
Ti       0.03488559       0.81056984       8.84785347      -0.00143323       0.00448878       0.00438731
Ti       2.56089812       1.60527372      10.10162355       0.00002406       0.00540982      -0.00211061
Ti       3.37468326       4.36061753      10.09623155      -0.00074189       0.00446946      -0.00320255
Ti       0.82585124       5.13482741      11.36214852      -0.00226662       0.00414175      -0.00545629
Ti       0.02307950       2.38477429      11.33000994       0.00045798       0.00719412      -0.00576338
Ti       3.36836638       0.44985344      12.59328359       0.00055196       0.00584312      -0.00290008
Ti       2.59668552       3.19068720      12.58420450      -0.00339341       0.00674974      -0.00309841
Ti       0.03236460       3.98105047      13.86027062       0.00201593       0.00236889       0.00199451
Ti       0.80602601       1.23878438      13.84516893      -0.00187425       0.00803609       0.00261532
Ti       2.54272491       4.80389600      15.01506288      -0.00245032       0.00475618       0.00608549
Ti       3.37361530       2.05823684      15.09466822      -0.00054005       0.00753362       0.01658997
Ti       0.78709381       2.77649616      16.45694479       0.00042894      -0.00684447       0.00730866
Ti       0.04481132       5.47296562      16.40217258      -0.00138858       0.00494443       0.00791275
Ti       3.33733541       1.76596196      17.79435301      -0.00378607      -0.00572854       0.00118117
Ti       2.58241939       4.51193581      17.72720769       0.00267361      -0.00973716       0.00473654
Ti       5.06992868       3.98346829      18.96060194      -0.00270017      -0.00764951      -0.00255869
Cu       0.81903207       1.12559942      18.87537140      -0.00395493      -0.00285106      -0.00293253
Ti       3.26819365       0.34019721      20.15328535       0.00085290       0.00363886      -0.01138894
Ti       2.49638467       3.05934079      20.13557036       0.00159251      -0.01164980      -0.01250269
Ti       0.86851762       5.02226772      21.37590971      -0.00552892      -0.00413898      -0.00883677
Ti       5.08752693       2.28753788      21.33137273      -0.00051492      -0.00660427      -0.01065808
Ti       2.56698457       1.56765913      22.65273255      -0.00115408      -0.00544495      -0.00740685
Ti       3.40162196       4.31300448      22.57118474       0.00090385      -0.00701144      -0.00675680
Ti       0.02498689       0.76446111      23.85708138       0.00092271      -0.00466601       0.00039790
Ti       0.80235717       3.51084838      23.83431811       0.00038816      -0.00520287       0.00224252
Ti       3.39112930       2.71717530      25.12541809      -0.00004001      -0.00372628       0.01009295
Ti       2.57902945       5.45060014      25.10485396       0.00038196      -0.00441414       0.00919812
Ti       0.85850166       1.94689107      26.34218173       0.00203783      -0.00545401       0.00537448
Ti       0.02923051       4.69622198      26.36245617       0.00255008      -0.00284739       0.00642727
Ti       2.57903781       3.92218920      27.60958415       0.00057442      -0.00498017      -0.00460387
Ti       3.37300198       1.17496647      27.60595782       0.00106209      -0.00565660      -0.00329579
Ti       0.82618310       0.37804926      28.86340013       0.00136212      -0.00481783      -0.00296363
Ti       0.05219192       3.12212136      28.84712022       0.00137213      -0.00465517      -0.00334084
Ti       2.58675151       2.35385151      30.11113935       0.00007686      -0.00223812       0.00594039
Ti       3.38374520       5.10065222      30.10033766       0.00203177      -0.00352392       0.00617848
Ti       0.81448962       4.34163949      31.32675711       0.00118457      -0.00312832       0.00811015
Ti       0.03398260       1.59568138      31.32118299       0.00097171      -0.00292561       0.00770842
Ti       3.31608318       3.53719444       0.00529032       0.00102453       0.00038258       0.00061448
