52
Lattice="5.088765 0.0 0.0 0.0 5.495746 0.0 0.0 0.0 32.722931" Properties=species:S:1:pos:R:3 job_name=C1-Cu-Cu-35-d-6.31 GB_type=C1 element=Cu system=Cu-35-d-6.31 distance=6.31 energy=-397.94004481 pbc="T T T"
Ti       2.60643429       0.79729783      32.70907773
Ti       0.01958628       1.60572370       1.35649484
Ti       0.80765044       4.34754436       1.35153491
Ti       2.57119992       2.35440069       2.57222431
Ti       3.36182177       5.10095458       2.57526921
Ti       0.80820777       0.38288703       3.82299666
Ti       0.03830110       3.13191892       3.82749822
Ti       3.36811094       1.18125149       5.06304873
Ti       2.56592429       3.93182993       5.06660443
Ti       0.01428972       4.70161946       6.31184905
Ti       0.83325781       1.95298682       6.31365409
Ti       3.36884557       2.73924893       7.55919416
Ti       2.56597736       5.48674881       7.56021159
Ti       0.82383644       3.54215301       8.81250240
Ti       0.01889011       0.79406263       8.81288020
Ti       2.55599106       1.57322386      10.06243522
Ti       3.37367235       4.32145124      10.06498500
Ti       0.81997989       5.09799154      11.31022853
Ti       0.02120826       2.34840293      11.31143369
Ti       3.34301057       0.39572948      12.55467554
Ti       2.57151311       3.14517163      12.56177226
Ti       0.01699457       3.92483646      13.80557770
Ti       0.80908709       1.17684764      13.81008204
Ti       2.56981502       4.67807197      15.03366264
Ti       3.35735665       1.93213235      15.01917425
Ti       0.73622713       2.73428616      16.37322743
Ti       0.05922673       5.47666932      16.41905178
Ti       3.32045333       1.90639715      17.78823679
Ti       2.57101729       4.63602951      17.82174849
Ti       0.01205271       3.88087379      19.03481515
Ti       0.81645521       1.16019865      18.97390581
Ti       3.37598318       0.40392195      20.24253113
Ti       2.55589481       3.15303368      20.29375240
Ti       0.90787104       5.11304086      21.45603152
Ti       0.09582689       2.33429434      21.47850304
Cu       2.62466476       1.56330947      22.68859355
Ti       3.43130475       4.32389142      22.68050596
Ti       0.09176054       0.80397717      23.88577897
Ti       0.92470272       3.51672324      23.89543272
Ti       3.39135321       2.74075218      25.10968381
Ti       2.53176339       5.47868318      25.07281656
Ti       0.82228242       1.97583801      26.38864374
Ti      -0.00235583       4.73790884      26.32204103
Ti       2.56805819       3.94361954      27.57032269
Ti       3.34667020       1.18645830      27.60344665
Ti       0.78477465       0.38751678      28.85566937
Ti       0.01621194       3.14865880      28.84253128
Ti       2.54891746       2.37001434      30.07454494
Ti       3.34400704       5.11331157      30.09665008
Ti       0.80009547       4.35344214      31.30892617
Ti       0.02564516       1.61097862      31.30733030
Ti       3.29634743       3.54208052      32.68534827
