52
Lattice="5.088765 0.0 0.0 0.0 5.495746 0.0 0.0 0.0 32.722931" Properties=species:S:1:pos:R:3:forces:R:3 job_name=C1-Cu-Cu-31-d-3.83 GB_type=C1 element=Cu system=Cu-31-d-3.83 distance=3.83 energy=-397.93964581 stress_kbar_3x3="_JSON [[-41.93169764, -0.66641153, 0.04308013], [-0.66641152, -34.41911849, 1.15022051], [0.04308014, 1.1502205, -24.34134463]]" pbc="T T T"
Ti       2.63267519       0.79185855      32.70581198       0.00675089       0.00151909       0.00175821
Ti       0.03600615       1.59909336       1.36504242      -0.00466057      -0.00164713      -0.00200665
Ti       0.82029500       4.34885570       1.35998154       0.00549313      -0.00206317      -0.00141265
Ti       2.57612137       2.35681010       2.58230879       0.00419769       0.00134586      -0.00424605
Ti       3.36986076       5.10521664       2.58405742      -0.00234405       0.00151513      -0.00420892
Ti       0.81841735       0.38667168       3.83293789       0.00001216      -0.00109351      -0.00186218
Ti       0.04271319       3.13629438       3.83053848       0.00299108      -0.00096057      -0.00150558
Ti       3.37744827       1.18002040       5.07527952       0.00392231      -0.00187608      -0.00215298
Ti       2.57299100       3.92830105       5.07897097      -0.00222030      -0.00175451      -0.00241736
Ti       0.01943348       4.69814133       6.32241949      -0.00022259      -0.00164301      -0.00175754
Ti       0.83828999       1.95140421       6.31877084       0.00273554      -0.00194163      -0.00305604
Ti       3.37783632       2.73347755       7.57702377      -0.00058900      -0.00306024      -0.00201057
Ti       2.57092911       5.48044516       7.56912220       0.00365631      -0.00201983      -0.00252237
Ti       0.84454673       3.53151923       8.82699333      -0.00224215      -0.00038000      -0.00388494
Ti       0.02915744       0.78138801       8.82361204       0.00223818      -0.00070439      -0.00473077
Ti       2.56606804       1.55137820      10.07865358      -0.00233846      -0.00201818      -0.00363291
Ti       3.38752036       4.30727651      10.07149686       0.00147113      -0.00382573      -0.00379099
Ti       0.82456091       5.07984812      11.32584097       0.00311775      -0.00299255       0.00205908
Ti       0.03260657       2.33455882      11.30757405      -0.00169349      -0.00544176       0.00057869
Ti       3.37459389       0.37810766      12.58358040      -0.00111836      -0.00289338       0.00035732
Ti       2.59104001       3.12453057      12.56171581       0.00250931      -0.00324739       0.00245149
Ti       0.02799188       3.88551912      13.81520378      -0.00404053      -0.00159095      -0.00356405
Ti       0.84410977       1.14188211      13.79737700       0.00059204      -0.00189624       0.00233393
Ti       2.58031552       4.62498663      15.01838520       0.00383146      -0.00334444       0.00342191
Ti       3.31711295       1.88328093      15.05571803       0.00059870      -0.00140761       0.00208978
Ti       0.77806428       2.75033783      16.49267753       0.00155111      -0.00011943       0.00228318
Ti       0.08939407       0.01686596      16.37788221      -0.00785879       0.00315608      -0.00531421
Ti       3.40912661       2.00901144      17.82455601      -0.00000184       0.00818596      -0.00767959
Ti       2.57065200       4.74467023      17.78099883      -0.00040620      -0.00349354      -0.00509742
Ti       5.04427943       3.95239230      18.99763834      -0.00036433      -0.00279264       0.00045717
Ti       0.75639250       1.17762889      18.98987024      -0.00190604       0.00635747      -0.00432344
Cu       3.31461058       0.40124459      20.19445724      -0.00618093       0.00497808      -0.01376708
Ti       2.50267857       3.16747269      20.18940294       0.00233087       0.00728747       0.01293433
Ti       0.76034615       5.13204419      21.41421010      -0.00112994      -0.00532561       0.00939743
Ti       5.02882975       2.35554517      21.39190568      -0.00818621       0.01393082       0.00830926
Ti       2.54372054       1.57181073      22.62190630       0.00217607       0.01468495       0.01191716
Ti       3.41269757       4.29753756      22.58426522       0.00076054      -0.01048063       0.00995930
Ti       0.01713631       0.79612568      23.90802509       0.00075002       0.00320070       0.00503682
Ti       0.83704811       3.56610597      23.84261509       0.00003446      -0.00097383      -0.00212178
Ti       3.36862653       2.75168599      25.10329366      -0.00254192       0.00243648      -0.00129327
Ti       2.57946574       5.49079081      25.12074501      -0.00225609      -0.00234703       0.00058035
Ti       0.84731952       1.95795868      26.36638983       0.00171292      -0.00054951      -0.00405481
Ti       0.03573976       4.68995149      26.37371398       0.00035647       0.00098940      -0.00201457
Ti       2.58097178       3.93033871      27.61444728       0.00001901      -0.00005066      -0.00069818
Ti       3.38930088       1.18687022      27.59976763       0.00039292      -0.00083675      -0.00203552
Ti       0.82430370       0.39058836      28.85504728      -0.00154751       0.00335517       0.00165808
Ti       0.05089540       3.13159433      28.85612013       0.00196147       0.00132964       0.00201046
Ti       2.58638110       2.35359442      30.10057021       0.00133264       0.00172235       0.00382078
Ti       3.38208531       5.10817756      30.10432889      -0.00167283       0.00223822       0.00365953
Ti       0.83075948       4.35103973      31.31960814       0.00615740      -0.00230221       0.00478923
Ti       0.04744692       1.60083013      31.32551374      -0.00465728      -0.00291182       0.00412021
Ti       3.32479034       3.54157114      32.70076401      -0.00347417       0.00175310       0.00117866
