52
Lattice="5.088765 0.0 0.0 0.0 5.495746 0.0 0.0 0.0 32.722931" Properties=species:S:1:pos:R:3:forces:R:3 job_name=C1-Cu-Cu-29-d-2.59 GB_type=C1 element=Cu system=Cu-29-d-2.59 distance=2.59 energy=-398.12096985 stress_kbar_3x3="_JSON [[-40.14495061, 0.24144694, 0.09733702], [0.24144693, -31.69661895, -2.97035629], [0.09733703, -2.97035631, -25.36856608]]" pbc="T T T"
Ti       2.61864354       0.78868407       0.00599296      -0.00040534       0.00202385      -0.00104718
Ti       0.02063930       1.61179781       1.37721097      -0.00061858       0.00710421      -0.00151697
Ti       0.79695637       4.35850018       1.36783637       0.00247780       0.00311139      -0.00320787
Ti       2.56725370       2.36459016       2.59111684       0.00165973       0.00469670      -0.00013004
Ti       3.36518532       5.11176017       2.59707362      -0.00274038       0.00646701       0.00169957
Ti       0.80715529       0.39582171       3.83860048      -0.00128875       0.00584266       0.00299137
Ti       0.03705207       3.14516191       3.84642927       0.00128443       0.00005118       0.00519802
Ti       3.36017784       1.19663441       5.09251518       0.00190171       0.00814916       0.00059011
Ti       2.56450025       3.94735604       5.09614479      -0.00164482      -0.00038880      -0.00069475
Ti       0.01279536       4.72659112       6.34222296       0.00349437       0.00434667       0.00285059
Ti       0.83045920       1.97452537       6.34461415       0.00257632       0.00638955       0.00184015
Ti       3.36519086       2.76147551       7.58790958      -0.00005011       0.00092918      -0.00350183
Ti       2.56420593       0.01419110       7.59985496      -0.00165884       0.01139577      -0.00545347
Ti       0.81423031       3.57007916       8.85163026      -0.00137842       0.00135407      -0.01233669
Ti       0.01733096       0.82652167       8.84999947       0.00573967       0.01233090      -0.01132150
Ti       2.56438014       1.62544767      10.09973574      -0.00125758       0.00175057       0.00085534
Ti       3.37705922       4.36589595      10.10450042      -0.00101782       0.00053833       0.00014318
Ti       0.82550863       5.14620539      11.33322819       0.00479993       0.00424461       0.00371441
Ti       0.02514654       2.40063885      11.36518258      -0.00052328       0.00190564       0.00231450
Ti       3.34279987       0.45679701      12.58899934      -0.00305239       0.01049077       0.00034664
Ti       2.57157256       3.21295311      12.59674425      -0.00305325       0.00151394       0.00313480
Ti       0.04551188       4.00113309      13.85010127       0.00867081      -0.00230521       0.00312858
Ti       0.81782328       1.24637670      13.86327947       0.00440397       0.00755130       0.00308974
Ti       2.56324612       4.82195660      15.09952427      -0.00667220       0.00153380       0.00324871
Ti       3.39816061       2.07298521      15.01838010      -0.00252667       0.00308076      -0.00947563
Ti       0.80305528       2.72679236      16.40439595       0.00325636      -0.00079621      -0.00563765
Ti       0.06004599       0.02702062      16.45425601       0.00749045       0.00144251      -0.00942698
Ti       3.35344279       1.75086936      17.72499506      -0.00190381       0.00403536      -0.00593848
Ti       2.60772154       4.50038692      17.79236479      -0.00380512      -0.00977422      -0.01360394
Cu       0.03344712       3.86151609      18.87623426      -0.01013546       0.00318486       0.00167283
Ti       0.87000099       1.22076440      18.95960921       0.00331933      -0.00661463      -0.00142397
Ti       3.44393973       0.29970544      20.13174525      -0.01078047      -0.01488661       0.00683411
Ti       2.67077682       3.07722385      20.14953087       0.00329994       0.00943618       0.00672764
Ti       0.84819199       5.02200553      21.32894031       0.01334809      -0.00544830       0.00914518
Ti       5.07195043       2.26305532      21.37158811      -0.00404015      -0.00493725       0.01433408
Ti       2.53572010       1.55305366      22.56646938       0.00356744      -0.00622657       0.00524400
Ti       3.37260361       4.30276029      22.64870315      -0.01192831      -0.00669874       0.01036878
Ti       0.04498216       0.75213104      23.83097836       0.00255756      -0.00580808      -0.00233443
Ti       0.82305889       3.49977614      23.85400286       0.00602351       0.00535363      -0.01093717
Ti       3.35678009       2.69302678      25.10272404      -0.00344652      -0.00839949      -0.00617773
Ti       2.54493509       5.45478803      25.12359607       0.00024018      -0.00173724      -0.01406565
Ti       0.81736770       1.93949069      26.36166157       0.00138541      -0.01068800       0.00014565
Ti       5.07753351       4.68454597      26.34009935      -0.00459159      -0.00087486      -0.00105295
Ti       2.56206873       3.91481306      27.60418432      -0.00110441      -0.00463978       0.00874719
Ti       3.35703707       1.16637313      27.60703463      -0.00336625      -0.00880398       0.00590438
Ti       0.79342677       0.36752482      28.84573934      -0.00108410      -0.00353218       0.00799084
Ti       0.01800399       3.11893215      28.86233911       0.00724545      -0.00376859       0.00972896
Ti       2.55111615       2.34746224      30.09981631      -0.00474314      -0.00968246       0.00385008
Ti       3.34705400       5.09543944      30.11163992       0.00154518       0.00308163       0.00497297
Ti       0.81349542       4.33830919      31.32018849       0.00133937      -0.00514007      -0.00334293
Ti       0.03187844       1.58858853      31.32796881      -0.00262587      -0.00700654      -0.00455997
Ti       3.30308464       3.53846983      32.68657293      -0.00018339      -0.00517838      -0.00362459
