52
Lattice="5.088765 0.0 0.0 0.0 5.495746 0.0 0.0 0.0 32.722931" Properties=species:S:1:pos:R:3:forces:R:3 job_name=C1-Cu-Cu-26-d-0.00 GB_type=C1 element=Cu system=Cu-26-d-0.00 distance=0.0 energy=-397.98297087 stress_kbar_3x3="_JSON [[-42.33769479, 0.94153977, 0.00178739], [0.94153979, -29.50554067, -0.01184763], [0.00178734, -0.01184763, -24.17816597]]" pbc="T T T"
Ti       2.61865793       0.79539653       0.00006570      -0.00080076      -0.00294510      -0.00103287
Ti       0.03212038       1.59919127       1.37902403      -0.00079849       0.00100779      -0.00297461
Ti       0.81938744       4.34468531       1.38298453      -0.00024901       0.00174962      -0.00213207
Ti       2.57700949       2.35679860       2.59854257      -0.00052175      -0.00057074       0.00322783
Ti       3.36681596       5.10364852       2.59892249      -0.00101633      -0.00054886       0.00461390
Ti       0.81020167       0.39029900       3.84304784      -0.00252316      -0.00098885       0.00894215
Ti       0.03523540       3.13712703       3.84843180      -0.00353642      -0.00199784       0.00994340
Ti       3.36910841       1.17779821       5.09765039      -0.00041601      -0.00165278       0.01101875
Ti       2.55974268       3.92740919       5.08577105       0.00043725      -0.00099004       0.01337762
Ti       0.02208775       4.69649626       6.33423834      -0.00030847      -0.00074459       0.00836439
Ti       0.83276740       1.94890256       6.34148422      -0.00202584      -0.00145541       0.01278831
Ti       3.36264904       2.74564924       7.58288930      -0.00480371      -0.00478875       0.00655633
Ti       2.56391104       5.48844465       7.59826971      -0.00428387      -0.00440595       0.01022941
Ti       0.81792813       3.53727272       8.85100366       0.00355706      -0.00332167       0.00360581
Ti       5.08422933       0.78830116       8.83215277       0.00237582      -0.00155672       0.00774704
Ti       2.55900008       1.56246345      10.07416805      -0.00379052       0.00209324      -0.00816788
Ti       3.37801616       4.29989541      10.09975510      -0.00427087       0.00155349       0.00729227
Ti       0.79814869       5.10503175      11.32073818      -0.00329591      -0.00499500      -0.00561931
Ti       0.04108723       2.32428739      11.36430303      -0.00164704       0.00386445       0.00449703
Ti       3.32535002       0.43418579      12.59880747       0.01069087      -0.00009414       0.00606909
Ti       2.52606701       3.16707923      12.58992568       0.00621315       0.00069013       0.00283367
Ti       5.07162275       3.85564446      13.78596570      -0.00537919      -0.00783299       0.00139733
Ti       0.82659507       1.14032160      13.89829456      -0.00370517       0.00988796       0.01119442
Ti       2.72480059       4.64181957      15.01258206       0.00898251       0.01589024       0.00683062
Ti       3.38416921       1.92460298      14.98809907       0.01312576      -0.00334948       0.00115079
Ti       0.65924118       2.93985101      16.36119393      -0.00613964       0.01413755      -0.00388982
Cu       0.19697940       0.06939679      16.36150230       0.00277768      -0.00484010      -0.00107037
Ti       3.38395189       1.92437486      17.73426029       0.01449243      -0.00192877      -0.00358440
Ti       2.72446025       4.64228198      17.70971801       0.00752673       0.01430526      -0.01155452
Ti       5.07178363       3.85581404      18.93722304      -0.00413757      -0.00790389       0.00241170
Ti       0.82657173       1.14033400      18.82467160      -0.00570157       0.01067287      -0.00911410
Ti       3.32540961       0.43460122      20.12507105       0.01075329      -0.00162693       0.00033878
Ti       2.52621541       3.16704211      20.13378875       0.00517882       0.00175009       0.00284099
Ti       0.79811978       5.10533079      21.40239593      -0.00334781      -0.00410229       0.00994791
Ti       0.04091890       2.32462455      21.35890079      -0.00039310       0.00316768      -0.00109126
Ti       2.55883548       1.56268274      22.64824340      -0.00358107       0.00218910       0.00755848
Ti       3.37809621       4.30013246      22.62275889      -0.00480744       0.00208111      -0.00753577
Ti       5.08419564       0.78851542      23.89011706       0.00254804      -0.00192367      -0.01389304
Ti       0.81795196       3.53749052      23.87128026       0.00347085      -0.00325915      -0.00941088
Ti       3.36254171       2.74590366      25.13962049      -0.00410364      -0.00537784      -0.01075751
Ti       2.56399360       5.48876700      25.12432908      -0.00460760      -0.00483149      -0.01417204
Ti       0.83264836       1.94910235      26.38167917      -0.00184432      -0.00140831      -0.01163053
Ti       0.02218654       4.69684764      26.38878702      -0.00080541      -0.00100878      -0.00677931
Ti       2.55984717       3.92762193      27.63780761       0.00049826      -0.00082249      -0.00964083
Ti       3.36907843       1.17816993      27.62574993      -0.00017862      -0.00215896      -0.00640505
Ti       0.81025975       0.39055342      28.88038383      -0.00318659      -0.00061958      -0.00545245
Ti       0.03507856       3.13724550      28.87505374      -0.00329635      -0.00146098      -0.00609441
Ti       2.57699998       2.35681640      30.12418425      -0.00160821      -0.00057437      -0.00346522
Ti       3.36676052       5.10363000      30.12394643       0.00031678      -0.00006926      -0.00473083
Ti       0.81948806       4.34481918      31.33981498      -0.00111592       0.00163131      -0.00237951
Ti       0.03222089       1.59936807      31.34383321      -0.00004713       0.00085856      -0.00130478
Ti       3.31269069       3.54058139      32.72277371      -0.00067079      -0.00137467      -0.00089466
