52
Lattice="5.088765 0.0 0.0 0.0 5.495746 0.0 0.0 0.0 32.722931" Properties=species:S:1:pos:R:3 job_name=C1-Cu-Cu-33-d-5.07 GB_type=C1 element=Cu system=Cu-33-d-5.07 distance=5.07 energy=-398.01000932 pbc="T T T"
Ti       2.64241404       0.79006812      32.67313727
Ti       0.05223787       1.60557609       1.35410472
Ti       0.83001243       4.35312898       1.35840727
Ti       2.58038831       2.35903983       2.57929088
Ti       3.37264125       5.10652280       2.57517994
Ti       0.81914084       0.38847801       3.83507472
Ti       0.04825518       3.13674079       3.82140445
Ti       3.38817916       1.18376165       5.07710573
Ti       2.58431989       3.93045763       5.07978702
Ti       0.02226662       4.70236394       6.32670397
Ti       0.83934839       1.96052249       6.31074576
Ti       3.38048984       2.74132617       7.58494557
Ti       2.58116947       5.49079198       7.55948511
Ti       0.85944235       3.54752108       8.82235468
Ti       0.05159076       0.79530160       8.81558768
Ti       2.57262235       1.56343728      10.08724932
Ti       3.39635066       4.33034054      10.05251558
Ti       0.82665519       5.09614787      11.34261726
Ti       0.03936033       2.35284900      11.28954656
Ti       3.41253282       0.41279501      12.59550016
Ti       2.62776127       3.15678931      12.55110573
Ti       0.04753554       3.91371377      13.84590469
Ti       0.86509072       1.18052909      13.76691647
Ti       2.55612059       4.69245593      14.99245331
Ti       3.27750704       1.94713958      15.07680762
Ti       0.74400802       2.78736791      16.58910420
Ti       0.12401104       0.04704531      16.26726741
Ti       3.38020224       1.82330029      17.84180337
Ti       2.73452379       4.61009810      17.72101697
Ti       4.97067777       3.86011664      19.11121285
Ti       0.84786949       1.12573490      19.00444500
Ti       3.28079089       0.42607562      20.27816352
Ti       2.41495258       3.20422813      20.11897068
Cu       0.76738867       5.09478966      21.45578490
Ti       0.04672820       2.35105614      21.43217296
Ti       2.41989058       1.51118180      22.72791456
Ti       3.28108740       4.25887548      22.58771025
Ti       4.98528581       0.79403689      23.82299722
Ti       0.85745342       3.54006310      23.87472190
Ti       3.38595021       2.79437368      25.08788766
Ti       2.60225162       0.02359919      25.13909806
Ti       0.81209079       1.94727595      26.29501919
Ti       0.03317613       4.70147598      26.38860662
Ti       2.56257385       3.91228960      27.60761696
Ti       3.38098390       1.19329290      27.61182759
Ti       0.84092426       0.41049007      28.83898203
Ti       0.06073731       3.13284358      28.83232489
Ti       2.60010093       2.36052710      30.09921153
Ti       3.37917647       5.10963921      30.08133335
Ti       0.82790373       4.35212312      31.30875886
Ti       0.03809070       1.59725120      31.31073369
Ti       3.33344144       3.54195477      32.71051932
