52
Lattice="5.088765 0.0 0.0 0.0 5.495746 0.0 0.0 0.0 32.722931" Properties=species:S:1:pos:R:3 job_name=C1-Cu-Cu-32-d-3.83 GB_type=C1 element=Cu system=Cu-32-d-3.83 distance=3.83 energy=-397.93069215 pbc="T T T"
Ti       2.61980852       0.79431814      32.71975916
Ti       0.03214926       1.59914737       1.37337876
Ti       0.82032070       4.34679172       1.37646076
Ti       2.57100699       2.35666488       2.58982217
Ti       3.36662705       5.10433387       2.58757302
Ti       0.81145903       0.38697811       3.83187868
Ti       0.03539273       3.13516476       3.83203924
Ti       3.37211808       1.18297101       5.07423299
Ti       2.56457122       3.93150035       5.07335689
Ti       0.01164569       4.70368569       6.31377367
Ti       0.83595598       1.95473687       6.31465304
Ti       3.37310154       2.73671691       7.55943273
Ti       2.56471407       5.48655543       7.56129168
Ti       0.82884318       3.53980677       8.80476369
Ti       0.01776809       0.79466211       8.80914354
Ti       2.55569099       1.57257108      10.06004126
Ti       3.37811641       4.31485545      10.06039877
Ti       0.82366609       5.09380680      11.30059441
Ti       0.02512588       2.34714976      11.30557117
Ti       3.35222053       0.39389180      12.55097950
Ti       2.57484810       3.14186324      12.56537077
Ti       0.00905705       3.91137706      13.79805404
Ti       0.81682160       1.16603327      13.79472389
Ti       2.58774613       4.66927652      15.03341629
Ti       3.35286838       1.91420957      15.01108256
Ti       0.75396853       2.75082619      16.38369465
Ti       0.04721072       5.48249629      16.46943085
Ti       3.36889294       1.95926404      17.77529118
Ti       2.51248522       4.72825382      17.81814266
Ti       0.06702486       3.90963113      18.98387776
Ti       0.87824208       1.18809211      18.98975838
Ti       3.41120028       0.40108678      20.19307073
Cu       2.60877465       3.13051782      20.19055808
Ti       0.89373076       5.08103530      21.39450019
Ti       0.07339395       2.36618119      21.41542491
Ti       2.50995650       1.53887209      22.59738719
Ti       3.39519063       4.31071927      22.62629219
Ti       5.08523590       0.81485501      23.84969678
Ti       0.81458762       3.54604526      23.90763816
Ti       3.34884284       2.74275059      25.12933313
Ti       2.56854585      -0.00519403      25.10329491
Ti       0.81309887       1.93465769      26.38277974
Ti       0.00142597       4.70080265      26.37282255
Ti       2.55265786       3.93420557      27.61516581
Ti       3.36009320       1.17907413      27.62727270
Ti       0.80393646       0.38299795      28.87377474
Ti       0.03675063       3.13365973      28.87605914
Ti       2.56853072       2.35913279      30.12055791
Ti       3.36079070       5.10314039      30.11816104
Ti       0.81305554       4.34865873      31.34386239
Ti       0.03371558       1.60304120      31.33920592
Ti       3.31395703       3.54077861      32.72029061
