52
Lattice="5.088765 0.0 0.0 0.0 5.495746 0.0 0.0 0.0 32.722931" Properties=species:S:1:pos:R:3:forces:R:3 job_name=C1-Cu-Cu-34-d-5.07 GB_type=C1 element=Cu system=Cu-34-d-5.07 distance=5.07 energy=-398.01102246 stress_kbar_3x3="_JSON [[-39.56529743, 0.69023748, 1.56011575], [0.69023745, -34.05460802, -0.40982197], [1.56011575, -0.40982199, -24.17500613]]" pbc="T T T"
Ti       2.60312789       0.79366018      32.70051382      -0.00308553       0.00037707       0.00463870
Ti       0.02108017       1.60711259       1.35272537      -0.00077524       0.00025178       0.00491299
Ti       0.80191616       4.35059919       1.35276443      -0.00686665       0.00002534       0.00455005
Ti       2.56829430       2.36062986       2.56893072      -0.00333624      -0.00187253       0.00465027
Ti       3.36255191       5.10575440       2.57467110      -0.00051013      -0.00157198       0.00467580
Ti       0.80475954       0.38801227       3.81180862      -0.00326280       0.00098467       0.00308789
Ti       0.03288777       3.13504690       3.82528563      -0.00525585       0.00099058       0.00338052
Ti       3.35711337       1.18131463       5.07276989      -0.00237924       0.00165794       0.00131526
Ti       2.55562779       3.93145163       5.06811164      -0.00315428       0.00216095       0.00084662
Ti       0.01358434       4.70598364       6.31166218      -0.00290564      -0.00018163       0.00480572
Ti       0.82977234       1.95377029       6.32759049      -0.00442811       0.00031796       0.00183501
Ti       3.36079071       2.74194431       7.56117451      -0.00306826       0.00022006       0.00182249
Ti       2.55930923       5.48681964       7.58689258      -0.00037719       0.00125702      -0.00103385
Ti       0.80008930       3.54279175       8.82453744      -0.00147013       0.00172134      -0.00156574
Ti       5.07944006       0.79791747       8.82703347      -0.00281764       0.00152834       0.00109685
Ti       2.54380183       1.58123945      10.06059681      -0.00037210       0.00139784      -0.00058149
Ti       3.36548153       4.31284855      10.09128154      -0.00167472      -0.00241173       0.00368163
Ti       0.81016584       5.10134935      11.29622457      -0.00068654       0.00080233      -0.00425831
Ti       0.02303452       2.34890016      11.35221954       0.00030356      -0.00001640      -0.00159666
Ti       3.30900191       0.41196869      12.56371616      -0.00234004       0.00112845      -0.00354552
Ti       2.53259854       3.16231726      12.60373537      -0.00263391      -0.00465469       0.00090726
Ti       5.07410303       3.92671033      13.78087008      -0.00211372      -0.00005007      -0.01037882
Ti       0.79497279       1.17049412      13.86201237      -0.00244237       0.00158512      -0.01282762
Ti       2.66439079       4.69747358      15.08417617      -0.00370292      -0.00073245      -0.00871497
Ti       3.38361180       1.94961902      15.00218648      -0.00131596       0.00003060      -0.00863298
Ti       0.72244220       2.79166235      16.26899775       0.00245544       0.00264289       0.00471438
Ti       0.09807956       0.03178218      16.59376957       0.00485572       0.00105015       0.00865991
Ti       3.19977504       1.84596910      17.73286738      -0.00952558       0.00312214      -0.00342205
Ti       2.55068979       4.56016022      17.84978786       0.00472738       0.00868763      -0.00043784
Ti       5.08241550       3.87392709      19.00816998       0.00768843      -0.00786154      -0.00059623
Ti       0.97188655       1.10525022      19.10224657       0.00595653       0.00455134      -0.00028449
Ti       3.51668563       0.44953345      20.12470625       0.00743138      -0.00147182      -0.01614936
Ti       2.65278905       3.16898455      20.26939223       0.00656301       0.01201078      -0.01040568
Ti       0.80752901       5.09874128      21.43510346      -0.00774324      -0.00408452      -0.00113514
Cu       0.08078779       2.34887116      21.43960403       0.00360238      -0.00622178      -0.00316528
Ti       2.65822945       1.51922855      22.59464980      -0.00461461      -0.00929532       0.00917617
Ti       3.51807215       4.26261208      22.72381396       0.01013638       0.00354863       0.00784609
Ti       5.07690789       0.79288327      23.86526271       0.00178186       0.00085441       0.00488155
Ti       0.94604340       3.55198190      23.81800059      -0.00019693      -0.00029302       0.00453592
Ti       3.34115727       2.77538896      25.12846644       0.00092880      -0.00112781       0.00919918
Ti       2.54561341       0.05229333      25.08472417      -0.00018996      -0.00225287       0.00345550
Ti       0.81112497       1.95361859      26.38345780      -0.00187621      -0.00445553       0.00001846
Ti       0.03071808       4.70380701      26.29756807       0.00637628      -0.00342692      -0.00489621
Ti       2.55065766       3.94125934      27.60586796       0.00183942       0.00418990       0.00153115
Ti       3.37058794       1.16850395      27.60062877       0.00444853      -0.00190948       0.00033600
Ti       0.78549516       0.39446042      28.82772371       0.00044330       0.00069370       0.00091462
Ti       0.00156509       3.15511438      28.83625007       0.00054837      -0.00061347      -0.00074036
Ti       2.54986871       2.36524419      30.07686180       0.00113899      -0.00322867      -0.00351156
Ti       3.33021843       5.10570840      30.09858478       0.00490940      -0.00011976      -0.00203513
Ti       0.80327602       4.34505078      31.30493093       0.00139546       0.00012959      -0.00145600
Ti       0.01596036       1.60258989      31.30757911       0.00660722       0.00030156      -0.00121309
Ti       3.29315064       3.53854896      32.67663023       0.00098390      -0.00036616       0.00110841
