52
Lattice="5.088765 0.0 0.0 0.0 5.495746 0.0 0.0 0.0 32.722931" Properties=species:S:1:pos:R:3:forces:R:3 job_name=C1-Cu-Cu-25-d-0.00 GB_type=C1 element=Cu system=Cu-25-d-0.00 distance=0.0 energy=-397.98422726 stress_kbar_3x3="_JSON [[-43.19332509, -0.87277333, 0.00061515], [-0.87277334, -30.50556967, -0.01881102], [0.00061513, -0.01881103, -25.23070993]]" pbc="T T T"
Ti       2.62582765       0.78950365       0.00271513       0.00566077       0.00132227      -0.00422407
Ti       0.03183499       1.59632140       1.38171147      -0.00403075      -0.00237434      -0.00410896
Ti       0.81624294       4.34642265       1.37767438       0.00464645      -0.00177945      -0.00437602
Ti       2.57161428       2.35390369       2.59786714       0.00064834       0.00078205       0.00374738
Ti       3.36219125       5.10335909       2.59706086      -0.00159858       0.00048125       0.00295315
Ti       0.81554494       0.38695826       3.85044171      -0.00211400      -0.00030061       0.00777606
Ti       0.03936184       3.13592105       3.84379127       0.00287221      -0.00010763       0.00806947
Ti       3.37973440       1.17774616       5.09278628      -0.00250267      -0.00006359      -0.00004505
Ti       2.56950405       3.92387289       5.10446346       0.00168902      -0.00085896      -0.00007086
Ti       0.01708808       4.69569782       6.35236387      -0.00214344      -0.00104597      -0.00735253
Ti       0.82733417       1.94808636       6.34272513      -0.00019200      -0.00207609      -0.00481115
Ti       3.37419524       2.73788744       7.61200543       0.00064220       0.00175384      -0.00427663
Ti       2.57698673       5.49112009       7.59307954      -0.00017386       0.00073829      -0.00090537
Ti       0.85311827       3.53447209       8.84270807       0.00113894       0.00213818       0.00204216
Ti       0.03015104       0.78759654       8.86053825      -0.00032546       0.00172158       0.00148014
Ti       2.55800980       1.55258088      10.10681076      -0.00109299      -0.00228872      -0.00514682
Ti       3.37890042       4.30923054      10.07610084      -0.00412172      -0.00088806       0.00454328
Ti       0.80493006       5.07146057      11.37172799       0.00145435      -0.00525184      -0.00558896
Ti       0.05076836       2.35779248      11.32099900       0.00129472       0.00306778       0.00225818
Ti       3.40904840       0.41994888      12.59216605       0.00064635      -0.00433485       0.00169400
Ti       2.60793220       3.18671569      12.60290215      -0.00063171       0.00405777      -0.00030836
Ti       0.01758852       3.89378310      13.90032904       0.00327443      -0.00647761       0.00075418
Ti       0.86180588       1.10937313      13.78638496       0.00215601       0.00718927      -0.00509519
Ti       2.55193135       4.66845390      14.98561321       0.00263401      -0.00230522      -0.01527406
Ti       3.21024243       1.90327616      15.01572063       0.00078551       0.00967956      -0.00447051
Cu       0.65166570       2.82229881      16.36170669      -0.01407206       0.00372393      -0.00210213
Ti       0.18043702       0.20045615      16.36285799      -0.00367974      -0.01126099      -0.00176326
Ti       3.20875582       1.90376914      17.70924230       0.00070197       0.01261197       0.00223111
Ti       2.55129457       4.66741307      17.73992549       0.01006979      -0.00585535       0.01371227
Ti       0.01747262       3.89344313      18.82134313       0.00166267      -0.00905128      -0.00242041
Ti       0.86152398       1.10942309      18.93551164       0.00515678       0.00787065       0.00880662
Ti       3.41080397       0.42085078      20.12697350      -0.00300524      -0.00576414       0.00531817
Ti       2.60916488       3.18803420      20.11538080      -0.00192900       0.00572434       0.00595415
Ti       0.80411093       5.07194106      21.34623102       0.00168490      -0.00483407       0.01253429
Ti       0.05127022       2.35832944      21.39751553       0.00106002       0.00364836       0.00711430
Ti       2.55825233       1.55225106      22.61364777      -0.00148086      -0.00038047       0.00952442
Ti       3.37765371       4.30943901      22.64552096      -0.00149752      -0.00082103      -0.00271636
Ti       0.03051037       0.78787959      23.86536435      -0.00057666       0.00013487      -0.00834684
Ti       0.85288615       3.53426799      23.88266967       0.00149524       0.00174614      -0.00562681
Ti       3.37439717       2.73774692      25.11567020      -0.00053563       0.00125852      -0.00303751
Ti       2.57624852       5.49120395      25.13479050       0.00237714       0.00006887      -0.00608492
Ti       0.82815602       1.94821615      26.38386678      -0.00207492      -0.00215895      -0.00069953
Ti       0.01640245       4.69580161      26.37397565      -0.00152453      -0.00151005       0.00199832
Ti       2.56875654       3.92421756      27.61790462       0.00239376      -0.00014279       0.00091382
Ti       3.38046774       1.17816595      27.62931152      -0.00256369       0.00085795       0.00138890
Ti       0.81520146       0.38792563      28.86910164      -0.00154475      -0.00048746      -0.00280200
Ti       0.03945666       3.13691985      28.87591005       0.00257276       0.00012093      -0.00343505
Ti       2.57079394       2.35450406      30.12378560       0.00237290       0.00119457      -0.00098165
Ti       3.36268686       5.10387883      30.12458480      -0.00269727       0.00091223       0.00016198
Ti       0.81581911       4.34718572      31.34566404       0.00562338      -0.00061086       0.00229341
Ti       0.03241135       1.59692059      31.34156582      -0.00549053      -0.00066495       0.00281626
Ti       3.31968683       3.54068299       0.00256634      -0.00511506       0.00089016      -0.00401503
