52
Lattice="5.088765 0.0 0.0 0.0 5.495746 0.0 0.0 0.0 32.722931" Properties=species:S:1:pos:R:3:forces:R:3 job_name=C1-Cu-Cu-36-d-6.31 GB_type=C1 element=Cu system=Cu-36-d-6.31 distance=6.31 energy=-397.94309472 stress_kbar_3x3="_JSON [[-40.44146253, -0.22721832, -0.24986014], [-0.22721834, -31.78495206, 0.02541412], [-0.24986011, 0.02541413, -22.4185958]]" pbc="T T T"
Ti       2.63899465       0.79358122      32.68294815       0.00293468       0.00151244       0.00506124
Ti       0.04068039       1.59835481       1.35159404      -0.00049028      -0.00071966       0.00182547
Ti       0.82963286       4.34922235       1.35387171       0.00209014       0.00124640       0.00159601
Ti       2.57265354       2.35318425       2.57128805       0.00207150       0.00108750      -0.00325185
Ti       3.36772684       5.10185968       2.56766309       0.00201521       0.00112663      -0.00332226
Ti       0.81071596       0.38736356       3.82111754       0.00496406       0.00001401      -0.00492611
Ti       0.03922296       3.13466393       3.81536759      -0.00035221       0.00027588      -0.00384749
Ti       3.37257553       1.18354576       5.06654691       0.00165054      -0.00050087      -0.00210103
Ti       2.56769695       3.93011881       5.06407396       0.00404661       0.00042899      -0.00258191
Ti       0.01393926       4.70146334       6.31210513       0.00281016      -0.00045298       0.00326003
Ti       0.83460817       1.95521797       6.31138548       0.00329333      -0.00090693       0.00188404
Ti       3.37172799       2.73785920       7.56212590       0.00292945       0.00078644       0.00441538
Ti       2.56693193       5.48547573       7.56066470       0.00126399      -0.00016620       0.00299509
Ti       0.83034737       3.54090933       8.81521368       0.00357208       0.00220137       0.00469250
Ti       0.02345423       0.79248927       8.81584115       0.00323737       0.00026343       0.00165072
Ti       2.56148478       1.57336696      10.06498445       0.00184701       0.00013512      -0.00110503
Ti       3.38213741       4.32270707      10.06391005       0.00346616       0.00049321      -0.00204209
Ti       0.82944848       5.09628062      11.31406581      -0.00041049       0.00054715      -0.00562603
Ti       0.02864272       2.34920327      11.30975505       0.00215812       0.00090912      -0.00814776
Ti       3.36511939       0.39701203      12.56144202       0.00352349      -0.00022077      -0.00598733
Ti       2.59383531       3.14495136      12.55674842       0.00095979      -0.00211065      -0.00851999
Ti       0.04049443       3.92690212      13.80892791       0.00033534      -0.00013010      -0.00172426
Ti       0.83203497       1.17731251      13.80499213      -0.00047278       0.00048407      -0.00157869
Ti       2.58059579       4.67963521      15.01554891      -0.00432525      -0.00385755       0.00787079
Ti       3.36632320       1.93021961      15.02870414      -0.00152673      -0.00084174       0.00966930
Ti       0.79137094       2.72752131      16.41581120      -0.00243438       0.00045887       0.00469885
Ti       0.10912950       5.48230287      16.37166257      -0.00324191       0.00122980      -0.00097120
Ti       3.36694905       1.89268815      17.81439902      -0.00157902      -0.00806152       0.00190725
Ti       2.60887772       4.65046281      17.78170924       0.00419157      -0.00053085      -0.00354080
Ti       0.03214773       3.91012557      18.97674374      -0.00569112      -0.00768311      -0.00367073
Ti       0.83283380       1.13803469      19.02147969       0.00553545      -0.00464542       0.00163981
Ti       3.37809211       0.40458430      20.28756949      -0.00363277      -0.00214933       0.00583781
Ti       2.55922657       3.14499805      20.23475833      -0.00569233       0.00199477       0.01112896
Ti       0.75519717       5.07710797      21.47875194       0.00035045      -0.00214115       0.01378158
Ti       5.03226101       2.36364776      21.45077008      -0.00657720       0.00788247       0.01352505
Ti       2.50868546       1.57621920      22.67789660      -0.00729702      -0.00261431       0.00588742
Cu       3.32467569       4.31496047      22.68626263       0.00027358       0.00061888       0.00098899
Ti       5.02105884       0.77227215      23.90023936      -0.01410878      -0.00671390      -0.00379259
Ti       0.76032779       3.55293691      23.88609815      -0.00266307       0.00310904      -0.00816733
Ti       3.39982089       2.72991650      25.08557249       0.00517912      -0.00387025      -0.00879407
Ti       2.54091719       5.49136291      25.11706152       0.00002117       0.00462476      -0.01072715
Ti       0.84573236       1.98819447      26.33660853       0.00063752      -0.00312508      -0.01125872
Ti       0.02373301       4.71576978      26.39640982       0.00043402       0.00863123      -0.01008405
Ti       2.58425972       3.93743168      27.60779990       0.00497043      -0.00486718      -0.00034207
Ti       3.36946400       1.19705665      27.57966035       0.00242372       0.00567463      -0.00630895
Ti       0.83368744       0.40008650      28.84678259      -0.00153419       0.00306071       0.00389750
Ti       0.05983168       3.13385064      28.85601422      -0.00179168      -0.00380047       0.00112109
Ti       2.59115441       2.36582529      30.09764485      -0.00177352       0.00301282       0.00277355
Ti       3.39105767       5.12087465      30.08090881      -0.00096245       0.00221422       0.00131003
Ti       0.82427907       4.35865817      31.31135787      -0.00288972       0.00215374       0.00271121
Ti       0.04901576       1.60733303      31.30978491      -0.00091007       0.00171205       0.00298551
Ti       3.33089248       3.54327438      32.70849312      -0.00282910       0.00222028       0.00330434
