52
Lattice="5.088765 0.0 0.0 0.0 5.495746 0.0 0.0 0.0 32.722931" Properties=species:S:1:pos:R:3:forces:R:3 job_name=C1-V-V-34-d-5.07 GB_type=C1 element=V system=V-34-d-5.07 distance=5.07 energy=-402.83672629 stress_kbar_3x3="_JSON [[-39.75393935, 0.66842194, 0.36252835], [0.66842193, -31.52327762, -0.47573802], [0.36252838, -0.47573801, -21.92008141]]" pbc="T T T"
Ti       2.61629196       0.79356644      -0.01957766      -0.00033148       0.00809641       0.00411184
Ti       0.03117864       1.60225228       1.36237230      -0.00099429       0.00019982       0.00541563
Ti       0.81814662       4.34804899       1.36251353      -0.00877276       0.00223161       0.00771267
Ti       2.56967585       2.36038272       2.58219234       0.00152725      -0.00218868       0.00348838
Ti       3.36613558       5.10806289       2.57896400      -0.00116334      -0.00029856       0.00648429
Ti       0.81089055       0.38878565       3.82669907      -0.00094023      -0.00054885       0.00235410
Ti       0.03435525       3.13719971       3.82634506       0.00065272      -0.00107290       0.00429063
Ti       3.37078512       1.18367711       5.07452242      -0.00091009      -0.00039072      -0.00082199
Ti       2.56615984       3.93270538       5.07272774      -0.00050971      -0.00122555       0.00139987
Ti       0.01171848       4.70550532       6.31970232       0.00067445       0.00006149      -0.00168748
Ti       0.83560774       1.95675627       6.31802507      -0.00073506      -0.00021381      -0.00038315
Ti       3.37231554       2.73614601       7.56664620      -0.00165593       0.00278615      -0.00535413
Ti       2.56159559       5.48510695       7.56743822       0.00195456       0.00311850      -0.00299196
Ti       0.82725323       3.53771617       8.81917084      -0.00666159       0.00161237      -0.00459369
Ti       0.01925367       0.79238661       8.81967884      -0.00276698       0.00256163      -0.00282492
Ti       2.55597189       1.57777988      10.06959791       0.00071805       0.00456864      -0.00753780
Ti       3.37853727       4.32126811      10.06633025      -0.00418292      -0.00070679       0.00367611
Ti       0.82577791       5.09465506      11.31012644      -0.00277392       0.00356884      -0.00743202
Ti       0.01940267       2.34930744      11.31780587      -0.00291957       0.00192595       0.00752685
Ti       3.34815930       0.39444872      12.55282203      -0.00153328      -0.00055520       0.00103866
Ti       2.57579207       3.14560511      12.56105773      -0.00723663       0.00278357       0.00740510
Ti       0.02402458       3.92974717      13.80643164      -0.00935904       0.00370619      -0.00795426
Ti       0.81280229       1.18025137      13.81058231       0.00113271       0.00126850       0.00000684
Ti       2.58310006       4.69743254      15.03318895       0.00514041       0.00478445      -0.00557362
Ti       3.37446583       1.94624037      15.00221447       0.00723139       0.00395248      -0.01245736
Ti       0.76208294       2.73837482      16.34653486       0.00557070       0.00091681      -0.01282808
Ti       0.07359596       5.47396897      16.43840281       0.00393666       0.00689368       0.01061385
Ti       3.30657049       1.87600232      17.74816330      -0.01452442      -0.00012441      -0.00820081
Ti       2.56768722       4.61197799      17.79676124      -0.00359967       0.00043415       0.00797522
Ti       0.00878566       3.85087278      19.00719766       0.00508020      -0.00200726      -0.00617430
Ti       0.86374099       1.14013545      19.04671776       0.00503710      -0.00566368       0.01589344
Ti       3.42526981       0.41224174      20.17561300       0.01077349      -0.00013784      -0.00307345
Ti       2.61404149       3.14107345      20.24154954       0.00946457      -0.00058971       0.01100370
Ti       0.79424857       5.08490138      21.42899909      -0.00259677      -0.00643463      -0.00431514
V        0.05269627       2.33856031      21.46066836       0.00284365      -0.00612660       0.00536257
Ti       2.53624242       1.55084926      22.62001511       0.00040433      -0.01214265      -0.00961546
Ti       3.46548660       4.28132550      22.69311291      -0.00639002      -0.01262227      -0.00340241
Ti      -0.00131721       0.87690979      23.85283751       0.00408483      -0.00697034      -0.00168343
Ti       0.87592862       3.58768176      23.84107647       0.00612059      -0.00623941      -0.00869068
Ti       3.33188898       2.75648444      25.13872210      -0.00028284      -0.00922662       0.00297206
Ti       2.56829245       0.02251783      25.12129079       0.00260242      -0.00357769      -0.00166813
Ti       0.83203306       1.94698147      26.39115437       0.00702443       0.00268736       0.00563263
Ti       0.00334375       4.70036195      26.34893494       0.00269826       0.00190198       0.00636188
Ti       2.55071393       3.95049905      27.62059798       0.00180604       0.00593995       0.00787364
Ti       3.38030246       1.19531360      27.60944289      -0.00011841      -0.00081684       0.01658901
Ti       0.79079242       0.39576612      28.85127001       0.00581423       0.00691917       0.00453669
Ti       0.02376405       3.14929832      28.85686236       0.00031844       0.00043570      -0.00251317
Ti       2.56323437       2.35586592      30.09647464      -0.00083350       0.00349223      -0.00120715
Ti       3.35295756       5.10680358      30.11664686      -0.00383431      -0.00182610      -0.01076312
Ti       0.82028278       4.34819540      31.32116466      -0.00251303       0.00293050      -0.00797942
Ti       0.02499762       1.60203987      31.31999006      -0.00069117      -0.00231093      -0.00487964
Ti       3.31111332       3.54461347      32.69842681      -0.00378050       0.00423990      -0.00311889
