52
Lattice="5.088765 0.0 0.0 0.0 5.495746 0.0 0.0 0.0 32.722931" Properties=species:S:1:pos:R:3 job_name=C1-V-V-29-d-2.59 GB_type=C1 element=V system=V-29-d-2.59 distance=2.59 energy=-403.39059876 pbc="T T T"
Ti       2.59668058       0.79515344      32.68143344
Ti       0.01518756       1.60212167       1.36418603
Ti       0.78553157       4.35149129       1.37601631
Ti       2.53228296       2.35037654       2.59489701
Ti       3.32662976       5.09763309       2.58851677
Ti       0.77672473       0.36600652       3.85061684
Ti       5.08431443       3.11452412       3.83632447
Ti       3.33874608       1.13844811       5.09448924
Ti       2.53345790       3.88399350       5.09871154
Ti       5.05904145       4.64115639       6.36482490
Ti       0.78732463       1.89805786       6.34875979
Ti       3.33399191       2.65144954       7.62417724
Ti       2.51185245       5.40344218       7.60839185
Ti       0.80877843       3.40740207       8.87594912
Ti       5.06201966       0.66554959       8.86781321
Ti       2.52573770       1.40324378      10.13830550
Ti       3.34289732       4.15182317      10.11331399
Ti       0.78517066       4.90165771      11.39087202
Ti       5.07266728       2.15966049      11.40979616
Ti       3.39492623       0.16339860      12.65129750
Ti       2.50272919       2.93556879      12.62112036
Ti       0.05148389       3.57229145      13.88092601
Ti       0.84850548       0.82444927      13.86709635
Ti       2.77927772       4.49024567      15.16039516
Ti       3.23757663       1.75218226      15.11490243
Ti       0.99005998       2.90473150      16.53737907
Ti       5.07047734       0.11558258      16.52271019
Ti       3.56613758       3.02223839      17.53180211
Ti       2.52061366       0.22821357      17.56403780
V        0.46204585       4.25375344      18.83563060
Ti       0.53869221       1.51102709      18.88489933
Ti       3.49082602       0.22847241      20.14533551
Ti       2.64790275       3.01631778      20.09554416
Ti       0.97122176       5.19596690      21.24375862
Ti       5.07369172       2.48875445      21.38461233
Ti       2.59743757       1.59290036      22.57669637
Ti       3.32799644       4.32737502      22.60856307
Ti       0.07609080       0.74730584      23.82189338
Ti       0.85062271       3.49056659      23.89075902
Ti       3.40655313       2.71092997      25.08930420
Ti       2.56747104       5.48191087      25.11425437
Ti       0.81098408       1.94421450      26.34440076
Ti       0.00487633       4.70604027      26.33785828
Ti       2.56046320       3.91172837      27.58053336
Ti       3.34742728       1.16283842      27.62448260
Ti       0.80601689       0.37521390      28.85732413
Ti       0.01954729       3.12728676      28.84555469
Ti       2.54169617       2.36396671      30.10107913
Ti       3.34747979       5.11030052      30.09411110
Ti       0.77422879       4.35741817      31.32711252
Ti       5.08398026       1.60930221      31.30774004
Ti       3.28145234       3.54322113       0.00569603
