52
Lattice="5.088765 0.0 0.0 0.0 5.495746 0.0 0.0 0.0 32.722931" Properties=species:S:1:pos:R:3:forces:R:3 job_name=C1-V-V-27-d-1.38 GB_type=C1 element=V system=V-27-d-1.38 distance=1.38 energy=-404.06441611 stress_kbar_3x3="_JSON [[-42.50500749, -0.01536229, 0.36742806], [-0.01536227, -23.20843467, 3.69318824], [0.36742805, 3.69318826, -36.35951518]]" pbc="T T T"
Ti       2.59337236       0.15188494      32.67276272      -0.00340266      -0.01011785      -0.00101946
Ti       0.50933290       1.71055778       1.26840976      -0.00320113       0.00449182      -0.00406520
Ti       0.34196857       4.45761482       1.26670882       0.00513954      -0.00824240      -0.00871564
Ti       2.49850304       3.06334370       2.62793463       0.00194216      -0.00319336      -0.00084845
Ti       3.43785148       0.31624193       2.62879766      -0.00644279      -0.00025713       0.00316786
Ti       0.89018595       0.34216989       3.68138793      -0.00083843      -0.00224314       0.00405391
Ti       5.04551767       3.08870967       3.68233874       0.00276736      -0.00192858      -0.00297955
Ti       3.10634106       1.61749227       5.05066675      -0.00716989      -0.00074521       0.01042994
Ti       2.82661470       4.36497749       5.05068227       0.00380787       0.00140787       0.00862539
Ti       0.02656295       5.40790131       6.35031196      -0.00840904       0.00769977       0.00916529
Ti       0.81495843       2.66047238       6.35136624       0.00656494       0.00711050       0.00920205
Ti       3.41643859       3.25879850       7.57279328      -0.00331283       0.00848429       0.01016206
Ti       2.51069694       0.50972648       7.57335383       0.00523792       0.00948577       0.01027201
Ti       0.78167506       4.05816871       8.84358205      -0.00203532       0.00800595       0.00289524
Ti       0.05382255       1.31171239       8.84417460       0.00252319       0.00413817      -0.00192875
Ti       2.59736579       2.13023999      10.11043522      -0.00407613       0.01180252      -0.00927310
Ti       3.32820956       4.87747702      10.11051653       0.00009664       0.01099038      -0.01086300
Ti       0.87388150       0.17854212      11.36976088       0.00118035       0.01329769       0.00388860
Ti       5.04694564       2.92918119      11.37203394       0.00047904       0.01119248       0.00213289
Ti       3.33696971       0.79856807      12.59190261       0.00135951       0.00292522       0.00563889
Ti       2.57912818       3.54418857      12.59480784       0.00354530       0.00971693       0.00562652
Ti       0.30774392       4.66909268      13.91893591       0.00081931       0.01332618      -0.00937954
Ti       0.51680900       1.92072156      13.91673140       0.00174277       0.00110808       0.00514895
Ti       2.47828837       0.49424726      15.27427983      -0.00685881       0.01322643       0.00036852
Ti       3.43968484       3.19499814      15.27577188      -0.00445064      -0.00161800       0.00610305
Ti       0.90010593       3.26103689      16.32765147       0.00858862      -0.00261470       0.00343093
Ti       5.02522718       0.58019202      16.33194721      -0.00027192       0.01599919      -0.00288558
V        2.96819110       1.90447251      17.62579869       0.00487001       0.00917411       0.00169574
Ti       2.96314502       4.64293344      17.62621153       0.00448233      -0.00401150       0.00092339
Ti       5.03142882       3.27755143      18.92189138      -0.01277451      -0.01090506      -0.00483747
Ti       0.91097864       0.59571318      18.91651860      -0.00358941       0.01119665       0.01151139
Ti       3.46033519       0.50805388      19.97424392       0.00552078       0.01169361      -0.00104157
Ti       2.49404481       3.20990473      19.97395188       0.00926955      -0.00865789      -0.00931156
Ti       0.54134627       4.69037853      21.33082927      -0.00679899       0.01307898       0.00480062
Ti       0.32711283       1.94028607      21.33208237       0.00203644      -0.01513549      -0.01244701
Ti       2.59474009       0.82079500      22.65213426      -0.00478474      -0.01211927      -0.00817220
Ti       3.35967170       3.56736593      22.64837571       0.00609060      -0.00371839      -0.00555916
Ti       5.06219090       0.21452984      23.87508285       0.00214884      -0.00421808      -0.00980945
Ti       0.88936983       2.96784129      23.87100617      -0.00277918      -0.01510992      -0.00086323
Ti       3.33733884       2.13642244      25.13347884      -0.00144273      -0.00410689       0.00240658
Ti       2.61139037       4.88304927      25.13388694       0.00228236      -0.00486720       0.00440867
Ti       0.80888274       1.28472739      26.40868747       0.00057180      -0.01207859      -0.00215815
Ti       0.05233581       4.02968421      26.40855580       0.00010000      -0.00449715      -0.00222812
Ti       2.55214247       3.26254031      27.65686634       0.00157062      -0.00964319       0.00199304
Ti       3.39504029       0.51372109      27.65636892       0.00013698      -0.00781481       0.00095563
Ti       0.80252041       5.23463781      28.90425355       0.00027946      -0.01023658       0.00206611
Ti       0.05532773       2.48670953      28.90331793      -0.00139797      -0.00845533       0.00304345
Ti       2.61349537       1.61774356      30.17815891       0.00089562      -0.00591836      -0.00685201
Ti       3.33221456       4.36633221      30.17931044      -0.00004819      -0.00701790      -0.00989779
Ti       0.88342222       3.52599010      31.43665114      -0.00055345      -0.00706682      -0.00191905
Ti       5.06084316       0.77697775      31.43788783      -0.00165893      -0.00077556      -0.00610317
Ti       3.34905315       2.90079356      32.67354028       0.00024779      -0.01223824      -0.00095852
