52
Lattice="5.088765 0.0 0.0 0.0 5.495746 0.0 0.0 0.0 32.722931" Properties=species:S:1:pos:R:3:forces:R:3 job_name=C1-V-V-25-d-0.00 GB_type=C1 element=V system=V-25-d-0.00 distance=0.0 energy=-402.78763717 stress_kbar_3x3="_JSON [[-41.05688587, -0.61390848, 0.00369698], [-0.61390847, -31.62336349, 0.00147342], [0.00369699, 0.00147343, -21.39278543]]" pbc="T T T"
Ti       2.61966030       0.79522616      -0.00039335      -0.00009985      -0.00165028       0.00079332
Ti       0.02897638       1.59872517       1.37883941       0.00181652       0.00300252      -0.00452876
Ti       0.81944593       4.34636832       1.37919941       0.00074765       0.00290991      -0.00547611
Ti       2.56952641       2.35497154       2.59148758      -0.00078118       0.00154552       0.00098812
Ti       3.36772624       5.10314725       2.59061256      -0.00194999       0.00322173      -0.00154279
Ti       0.81196256       0.38584071       3.83357009      -0.00153540       0.00137275       0.01008476
Ti       0.03544462       3.13388247       3.83313753       0.00073943       0.00121653       0.00372786
Ti       3.37317736       1.18267812       5.07671215       0.00222563       0.00172267       0.00515250
Ti       2.56535065       3.93058305       5.07524500       0.00525445       0.00094055       0.00954667
Ti       0.01142971       4.70220480       6.32087716      -0.00236407      -0.00216074       0.01254006
Ti       0.83657775       1.95588361       6.31730133      -0.00223859      -0.00241867       0.00480155
Ti       3.36957285       2.73794018       7.56523267       0.00223266      -0.00373420       0.01444852
Ti       2.56369009       5.48629960       7.55890089       0.00514644      -0.00106594       0.00058828
Ti       0.83504367       3.54252979       8.82158790       0.00583466       0.00176169       0.00912904
Ti       0.02503102       0.79410743       8.81497656       0.00931381       0.00549861       0.01454049
Ti       2.55478374       1.57041950      10.06222583      -0.00154675       0.00205423       0.01503045
Ti       3.38550997       4.32442399      10.04697665      -0.00705544       0.00004943       0.01551269
Ti       0.81995215       5.08898990      11.32504638      -0.00484781      -0.00520209       0.00528687
Ti       0.01791297       2.34121545      11.30261679       0.00729831       0.00191820       0.00623417
Ti       3.36342761       0.40989305      12.56262615       0.00385397       0.00114438       0.00943585
Ti       2.60278881       3.15827169      12.53328971       0.00215910       0.00136281       0.01146390
Ti       0.04801818       3.91391632      13.85355997      -0.00991172      -0.01075239       0.00266267
Ti       0.81878492       1.18369804      13.82532892       0.00235436      -0.00700608       0.00623801
Ti       2.54818174       4.68963915      14.98253211      -0.00845493       0.00361687       0.00573500
Ti       3.32970293       1.95487530      15.01213785       0.00586664       0.00064622       0.01073769
V        0.75054604       2.66377339      16.36148765      -0.01741314       0.00167532      -0.00030706
Ti       0.11669352       5.45322328      16.36190188      -0.01014285      -0.00171905      -0.00036795
Ti       3.32928452       1.95475782      17.71074466       0.00591039       0.00116290      -0.01010873
Ti       2.54790117       4.68949213      17.74065899      -0.00740765       0.00365077      -0.00595304
Ti       0.04816894       3.91372569      18.86927133      -0.01072049      -0.01024896      -0.00292302
Ti       0.81905836       1.18377695      18.89793762       0.00178928      -0.00672759      -0.00733966
Ti       3.36359069       0.41040843      20.15991398       0.00438220       0.00066527      -0.00965714
Ti       2.60290124       3.15864963      20.18963936       0.00218830       0.00147703      -0.01212697
Ti       0.81993074       5.08960969      21.39736851      -0.00507602      -0.00569266      -0.00476953
Ti       0.01800652       2.34162183      21.41989529       0.00723214       0.00231578      -0.00567431
Ti       2.55503463       1.57101412      22.66039326      -0.00153083       0.00157539      -0.01554215
Ti       3.38564724       4.32510862      22.67569309      -0.00710655      -0.00024133      -0.01547268
Ti       0.02528516       0.79463065      23.90774074       0.00872660       0.00522001      -0.01444715
Ti       0.83503710       3.54306287      23.90075485       0.00622349       0.00155492      -0.00838195
Ti       3.36932017       2.73837935      25.15767981       0.00253145      -0.00396186      -0.01457733
Ti       2.56393390       5.48674095      25.16398881       0.00500780      -0.00141598      -0.00032877
Ti       0.83639720       1.95595114      26.40568621      -0.00186690      -0.00233654      -0.00315714
Ti       0.01182500       4.70221259      26.40204680      -0.00316549      -0.00202940      -0.01108918
Ti       2.56543636       3.93049314      27.64801676       0.00508476       0.00160598      -0.00922759
Ti       3.37318875       1.18266036      27.64632699       0.00268957       0.00163649      -0.00485162
Ti       0.81179032       0.38606077      28.88973397      -0.00141525       0.00084979      -0.01085358
Ti       0.03553549       3.13406217      28.89024043       0.00082649       0.00089275      -0.00446125
Ti       2.56988746       2.35461620      30.13157292      -0.00160755       0.00103748      -0.00081692
Ti       3.36743113       5.10279131      30.13256827      -0.00142267       0.00316813       0.00171208
Ti       0.82003565       4.34598182      31.34422128      -0.00028168       0.00302047       0.00405695
Ti       0.02858669       1.59836869      31.34471182       0.00276020       0.00259527       0.00288805
Ti       3.31604159       3.54349264      32.72238345      -0.00025350       0.00027538       0.00064687
