52
Lattice="5.088765 0.0 0.0 0.0 5.495746 0.0 0.0 0.0 32.722931" Properties=species:S:1:pos:R:3:forces:R:3 job_name=C1-Zr-Zr-26-d-0.00 GB_type=C1 element=Zr system=Zr-26-d-0.00 distance=0.0 energy=-402.99145927 stress_kbar_3x3="_JSON [[-28.28587985, -1.43665817, 0.00518694], [-1.43665817, -19.39571001, -0.00757747], [0.00518694, -0.00757746, -9.78863642]]" pbc="T T T"
Ti       2.61875231       0.79333648       0.00029920       0.00006719       0.00777530      -0.00011251
Ti       0.03026229       1.59852625       1.37340023       0.00077517       0.00007571       0.00435399
Ti       0.82109210       4.34695979       1.37165571      -0.00004339      -0.00017997       0.00357922
Ti       2.56705084       2.35749639       2.58320475       0.00460223       0.00038740      -0.00126002
Ti       3.36691237       5.10683899       2.57907075      -0.00125665      -0.00205813       0.00150334
Ti       0.81585077       0.38755061       3.82273043       0.00021129       0.00085967      -0.00563474
Ti       0.03357774       3.13738699       3.81499714       0.00251341       0.00025051      -0.00348755
Ti       3.38220781       1.18456156       5.05609584       0.00102765       0.00137831      -0.00551295
Ti       2.56656045       3.93254127       5.05792430       0.00248937       0.00116278      -0.00507365
Ti       0.00807170       4.70207572       6.29670377       0.00402050      -0.00082739      -0.00356540
Ti       0.83873954       1.95597725       6.28397341       0.00025495       0.00086304      -0.00211434
Ti       3.37556827       2.73862029       7.54249233      -0.00086470       0.00024391      -0.00171568
Ti       2.56233215       5.49030928       7.52361360       0.00273503      -0.00174576       0.00257282
Ti       0.85433833       3.54487014       8.77405342      -0.00397791       0.00064141       0.00020180
Ti       0.02656125       0.79793334       8.76681857       0.00021185      -0.00162603      -0.00464632
Ti       2.55352715       1.56048996      10.02641080       0.00384223      -0.00056970      -0.00400996
Ti       3.39250645       4.31917323       9.99789879      -0.00069404       0.00157481       0.00170329
Ti       0.81675706       5.09449868      11.25746693      -0.00075851      -0.00055001       0.00070894
Ti       0.01624558       2.34793037      11.22525024       0.00096507      -0.00400360      -0.00293384
Ti       3.38851985       0.41040194      12.51455695      -0.00478638      -0.00316154      -0.00007124
Ti       2.59214577       3.15057947      12.46964928      -0.00291949      -0.00250336      -0.00273696
Ti       0.01249154       3.88012145      13.72418085      -0.00142392       0.00552777      -0.00511162
Ti       0.85706549       1.17308951      13.67497544      -0.00435548      -0.00318421      -0.00034538
Ti       2.54339173       4.65785351      14.92861384      -0.00494034       0.00340066       0.00061823
Ti       3.29211691       1.94859801      14.95834874       0.00099177      -0.00356882      -0.00304125
Ti       0.78786950       2.76535666      16.36119319      -0.00173598       0.00686092       0.00040566
Zr       0.05317215       5.48376108      16.36150979       0.00217410      -0.00450875       0.00028964
Ti       3.29194598       1.94858366      17.76436009       0.00079266      -0.00319780       0.00329463
Ti       2.54336066       4.65786031      17.79434188      -0.00503968       0.00305143      -0.00052175
Ti       0.01253996       3.88012909      18.99862189      -0.00137538       0.00549754       0.00487483
Ti       0.85722840       1.17316665      19.04801364      -0.00403110      -0.00328668      -0.00017258
Ti       3.38869743       0.41062353      20.20819995      -0.00508580      -0.00348886      -0.00019676
Ti       2.59227669       3.15079320      20.25331196      -0.00291425      -0.00259520       0.00195943
Ti       0.81680856       5.09463331      21.46535026      -0.00096624      -0.00020233      -0.00085623
Ti       0.01632097       2.34809273      21.49762020       0.00102539      -0.00407907       0.00314941
Ti       2.55364839       1.56063395      22.69638813       0.00380286      -0.00049927       0.00440451
Ti       3.39266037       4.31936314      22.72502561      -0.00084275       0.00171424      -0.00160825
Ti       0.02670289       0.79819068      23.95621877       0.00007992      -0.00180350       0.00419873
Ti       0.85447521       3.54511677      23.94881704      -0.00407551       0.00068511      -0.00031832
Ti       3.37556413       2.73887675      25.18048158      -0.00108114      -0.00009601       0.00136787
Ti       2.56236506       5.49054275      25.19944271       0.00267393      -0.00168035      -0.00296207
Ti       0.83879673       1.95628666      26.43912367       0.00026247       0.00085716       0.00211668
Ti       0.00810158       4.70230384      26.42623961       0.00418783      -0.00087312       0.00361819
Ti       2.56666884       3.93282691      27.66510343       0.00244744       0.00114707       0.00552674
Ti       3.38231863       1.18486535      27.66676977       0.00091950       0.00141632       0.00630251
Ti       0.81579473       0.38784177      28.90013679       0.00007537       0.00090082       0.00617810
Ti       0.03352977       3.13766992      28.90804274       0.00260044       0.00011772       0.00427167
Ti       2.56702079       2.35773618      30.13963957       0.00457999       0.00018873       0.00135498
Ti       3.36686732       5.10709123      30.14397966      -0.00104973      -0.00200020      -0.00152649
Ti       0.82126563       4.34734374      31.35130864      -0.00020305      -0.00039298      -0.00407338
Ti       0.03055205       1.59885314      31.34977473       0.00085125       0.00036549      -0.00481081
Ti       3.31897631       3.54413334      32.72280536       0.00324055       0.00573879      -0.00013514
