52
Lattice="5.088765 0.0 0.0 0.0 5.495746 0.0 0.0 0.0 32.722931" Properties=species:S:1:pos:R:3:forces:R:3 job_name=C1-Zn-Zn-35-d-6.31 GB_type=C1 element=Zn system=Zn-35-d-6.31 distance=6.31 energy=-395.76642622 stress_kbar_3x3="_JSON [[-39.49171004, -0.02377749, -0.12029164], [-0.02377752, -29.5783044, 0.40150274], [-0.12029164, 0.40150272, -19.10892738]]" pbc="T T T"
Ti       2.61863918       0.79517695       0.00107817      -0.00340821       0.00028515      -0.00305815
Ti       0.02735448       1.59904612       1.37645985       0.00143702       0.00122599      -0.00969799
Ti       0.81926862       4.34565431       1.37562787      -0.00357749       0.00147064      -0.00810302
Ti       2.57050080       2.35480606       2.58755546      -0.00148517      -0.00037499      -0.00618663
Ti       3.36820092       5.10290593       2.58865562       0.00113727       0.00087155      -0.00654890
Ti       0.81316376       0.38562233       3.83149471       0.00118176       0.00202697      -0.00339357
Ti       0.03631202       3.13375217       3.83213004       0.00018030       0.00071672      -0.00406772
Ti       3.37267763       1.18222746       5.07321371       0.00030091      -0.00004403      -0.00433894
Ti       2.56472249       3.92993472       5.07426629       0.00014183       0.00188716      -0.00236734
Ti       0.01084144       4.70228581       6.31545184      -0.00009900       0.00217780      -0.00165172
Ti       0.83632114       1.95480340       6.31443342      -0.00018790      -0.00020164      -0.00137447
Ti       3.37354407       2.73733578       7.55936915       0.00017674       0.00171816      -0.00098677
Ti       2.56256041       5.48561955       7.55808963       0.00132673       0.00044527      -0.00067779
Ti       0.83078189       3.54056304       8.80507461      -0.00031975      -0.00061975       0.00318806
Ti       0.01873865       0.79288978       8.80576971       0.00029090      -0.00101767       0.00302932
Ti       2.55587865       1.57414663      10.04981177      -0.00030928      -0.00107660       0.00480325
Ti       3.38102898       4.32185835      10.04717467       0.00040364      -0.00364701       0.00530639
Ti       0.82665799       5.09581646      11.29112650      -0.00041621      -0.00086788      -0.00007338
Ti       0.02185523       2.34885231      11.28999933      -0.00055547      -0.00084577       0.00208295
Ti       3.35693203       0.39515648      12.53314382      -0.00483642      -0.00086228       0.00753820
Ti       2.58158837       3.14389649      12.53422999      -0.00250300      -0.00328384       0.00313663
Ti       0.02656417       3.92551201      13.77794737      -0.00247123      -0.00190443       0.01335406
Ti       0.82037511       1.17593446      13.77616419       0.00055058       0.00025654       0.01115280
Ti       2.57315776       4.67604197      14.99300835      -0.00154312       0.00294040       0.01467540
Ti       3.36028281       1.92929478      14.99006194      -0.00671578      -0.00244140       0.01531099
Ti       0.75482304       2.73672080      16.36045898      -0.00955527       0.00274015       0.00933093
Ti       0.07265711       5.48387626      16.36577128      -0.01504367       0.00112853       0.00973834
Ti       3.33845343       1.91473110      17.75527912      -0.00401927      -0.00190387      -0.00836606
Ti       2.57336434       4.65853138      17.76972645      -0.00216385      -0.01926813      -0.00063510
Ti       0.00827139       3.91480355      18.98963153      -0.00197184      -0.00595544       0.00165958
Ti       0.80318284       1.17792769      18.93192620       0.01102674      -0.00812228       0.01294633
Ti       3.35071121       0.40619007      20.20148325       0.00399371      -0.00977704       0.01576829
Ti       2.55039944       3.15629793      20.25339599       0.00978374      -0.00058737      -0.00123125
Ti       0.87669372       5.11967059      21.43269482       0.01009822      -0.00190892       0.00514847
Ti       0.06195636       2.34543704      21.45160335       0.00023239      -0.00671064       0.01258128
Zn       2.59925450       1.56981533      22.68309022       0.01162713       0.00180533      -0.00251572
Ti       3.40021353       4.32453328      22.67435354       0.01198848       0.00132135       0.00140002
Ti       0.05388730       0.79484110      23.90338974       0.00519337       0.00561611      -0.00691908
Ti       0.88308393       3.52400521      23.91796050       0.01306240      -0.00023743      -0.00381667
Ti       3.37436117       2.74550985      25.15226670       0.01051198       0.00762026      -0.00784515
Ti       2.53301268       5.48009116      25.11025588       0.01535058      -0.00026022       0.00011290
Ti       0.81499452       1.95548271      26.42196706       0.00824106       0.00503236      -0.00648477
Ti       0.00290744       4.71204939      26.37428720      -0.00056396       0.00518264       0.00260811
Ti       2.56325165       3.93189737      27.62039418      -0.00056843       0.01186982       0.00403641
Ti       3.35360755       1.18309571      27.63716442       0.00108088      -0.00347922       0.00315374
Ti       0.79939278       0.38449183      28.88740328      -0.00300120       0.00598066      -0.01145491
Ti       0.02687516       3.13995170      28.87777051      -0.01178521      -0.00188446      -0.00671675
Ti       2.56705708       2.36171467      30.11964333      -0.01050173       0.00034987      -0.01001784
Ti       3.35818299       5.10489990      30.12488043      -0.00810393       0.00767796      -0.00684652
Ti       0.81286104       4.34434357      31.33924007      -0.01068334       0.00261340      -0.01007407
Ti       0.03125616       1.59927629      31.34163787      -0.00760463       0.00441174      -0.01389253
Ti       3.31551319       3.54107799      32.71719206      -0.00532399      -0.00209021      -0.01271970
