52
Lattice="5.088765 0.0 0.0 0.0 5.495746 0.0 0.0 0.0 32.722931" Properties=species:S:1:pos:R:3 job_name=C1-Zn-Zn-28-d-1.38 GB_type=C1 element=Zn system=Zn-28-d-1.38 distance=1.38 energy=-396.5410407 pbc="T T T"
Ti       2.58786660       0.24549546      32.67278602
Ti       0.47999802       1.75520677       1.27298367
Ti       0.34336144       4.50286195       1.27462702
Ti       2.48656383       3.07139710       2.63036711
Ti       3.42916236       0.32412401       2.62990718
Ti       0.87994704       0.36891888       3.68108113
Ti       5.03720538       3.11674794       3.68160026
Ti       3.13294855       1.59413810       5.05604517
Ti       2.78678444       4.34323981       5.05773486
Ti       0.01279638       5.31845251       6.34731828
Ti       0.82137045       2.56815660       6.34489238
Ti       3.40939412       3.16899758       7.56803353
Ti       2.51560777       0.42651645       7.56912880
Ti       0.79122171       3.95120478       8.82539755
Ti       0.04840632       1.20327899       8.82674414
Ti       2.59070291       1.99122753      10.09413078
Ti       3.33408445       4.73514840      10.09083763
Ti       0.88060911       0.02796134      11.34770230
Ti       5.05015888       2.77561042      11.34882727
Ti       3.37452955       0.62229227      12.55744978
Ti       2.58189198       3.35390104      12.59589654
Ti       0.34385485       4.47334669      13.91512352
Ti       0.53847821       1.70658550      13.87239515
Ti       2.51073878       0.34621830      15.26140152
Ti       3.51056515       3.03914420      15.24671065
Ti       0.98943373       3.00203718      16.24616981
Ti       5.06101135       0.29951238      16.32723581
Ti       3.14140503       1.75671484      17.65515968
Zn       2.78231279       4.48310342      17.65079678
Ti       0.06382186       3.45406288      18.87368557
Ti       0.93451973       0.71106590      18.95657730
Ti       3.45579244       0.12803106      20.09728763
Ti       2.49271747       2.86331893      20.09337842
Ti       0.78421213       4.75043715      21.37826474
Ti       0.04332439       2.01701894      21.37625684
Ti       2.56127968       1.16154624      22.61944662
Ti       3.35283761       3.91574170      22.65304256
Ti      -0.00079186       0.39993468      23.88178663
Ti       0.83800813       3.13367382      23.89481799
Ti       3.33910506       2.33825712      25.12578926
Ti       2.57453752       5.09136453      25.13558038
Ti       0.79685499       1.47956516      26.40826128
Ti       0.01337815       4.23150072      26.40449578
Ti       2.53512201       3.45067421      27.64432139
Ti       3.37232871       0.70154515      27.65017704
Ti       0.77418613       5.39231594      28.90049942
Ti       0.04381986       2.64488301      28.90446500
Ti       2.59554054       1.75470867      30.17518296
Ti       3.30783578       4.50196554      30.17630960
Ti       0.86323949       3.65969197      31.42758852
Ti       5.04547923       0.91091080      31.42305975
Ti       3.32367393       2.99365824      32.67037799
