52
Lattice="5.088765 0.0 0.0 0.0 5.495746 0.0 0.0 0.0 32.722931" Properties=species:S:1:pos:R:3:forces:R:3 job_name=C1-Zr-Zr-34-d-5.07 GB_type=C1 element=Zr system=Zr-34-d-5.07 distance=5.07 energy=-402.77670475 stress_kbar_3x3="_JSON [[-29.38868711, -0.37269687, -0.43156715], [-0.37269684, -19.4252095, -0.14091712], [-0.43156714, -0.14091714, -8.44130615]]" pbc="T T T"
Ti       2.62363330       0.79829442       0.01825672       0.00056786       0.00212394      -0.00179524
Ti       0.03024815       1.60230895       1.39438834       0.00284811      -0.00278684      -0.01152928
Ti       0.82234668       4.35225758       1.39552819       0.00180458      -0.00082334      -0.00864173
Ti       2.56667340       2.35863741       2.59988757      -0.00062465      -0.00068937      -0.00574632
Ti       3.36886898       5.10658982       2.60031325       0.00025192      -0.00100677      -0.00818957
Ti       0.81560907       0.38843474       3.83762812       0.00005106      -0.00053652       0.00008894
Ti       0.03341986       3.13598235       3.83493404       0.00031426       0.00236189      -0.00073527
Ti       3.37550097       1.18527443       5.07396776       0.00175922       0.00014915       0.00604199
Ti       2.56290162       3.93226667       5.07415358       0.00011370       0.00009835       0.00689625
Ti       0.00799977       4.70357196       6.30937543      -0.00021874      -0.00074251       0.00956046
Ti       0.83982202       1.95740981       6.30760735       0.00171410       0.00158432       0.00790225
Ti       3.37766056       2.73865473       7.55006749       0.00064485       0.00137426       0.00634880
Ti       2.56032177       5.48541461       7.54552807       0.00031183       0.00213591       0.00331935
Ti       0.83949030       3.54125471       8.78833938       0.00168498       0.00030522       0.00171307
Ti       0.01845970       0.79058522       8.78527886       0.00295259      -0.00007746       0.00226094
Ti       2.55423053       1.56732767      10.02669730       0.00138760      -0.00281125      -0.00522211
Ti       3.38782732       4.32234622      10.02226678      -0.00006305      -0.00046792      -0.00313561
Ti       0.82975174       5.09279990      11.26582774      -0.00043174      -0.00175163      -0.00543597
Ti       0.02108782       2.34311440      11.25076440      -0.00024158      -0.00014990      -0.00527433
Ti       3.37073555       0.39662555      12.50411214       0.00399395      -0.00413869      -0.00557340
Ti       2.58735313       3.13996513      12.49065920       0.00128120       0.00017588      -0.00667776
Ti       0.03185773       3.90987924      13.73554174       0.00046036      -0.00161835      -0.00404107
Ti       0.83115040       1.16629254      13.72257894       0.00157391       0.00405855      -0.00488942
Ti       2.56457341       4.67201563      14.92102018      -0.00271980      -0.00003317       0.00371097
Ti       3.33956979       1.93039658      14.95937276      -0.00234458      -0.00043743       0.00330706
Ti       0.77142625       2.72926683      16.35696471      -0.00312172       0.00506949       0.00577343
Ti       0.08519449       5.48597547      16.25537713       0.00150593       0.00168420       0.00183107
Ti       3.39629645       1.90443892      17.71584414      -0.00377410       0.00273149       0.00703892
Ti       2.62003518       4.66581163      17.66173454       0.00515600      -0.00654648       0.00311721
Ti       0.01596245       3.97722101      18.88885379       0.00116753       0.00781057       0.00072076
Ti       0.81976126       1.17185871      18.82730916      -0.00174880      -0.00676534      -0.00639807
Ti       3.26081278       0.37109755      20.17168471      -0.00296399      -0.00333183      -0.00006327
Ti       2.55546145       3.17133010      20.09214030      -0.00085972       0.01136105      -0.01270506
Ti       0.84358808       5.09025278      21.45059543      -0.00018460       0.00060721       0.00164671
Zr       0.01941357       2.34458480      21.42321812      -0.01039719      -0.00738376      -0.00437095
Ti       2.53800395       1.55267042      22.76641827       0.00430370      -0.00616297       0.01166355
Ti       3.30084559       4.34524367      22.68613253       0.00066032      -0.00201844       0.00219756
Ti       0.00851176       0.74828679      23.99140550      -0.00196908      -0.00795168       0.00798738
Ti       0.82392714       3.54152737      24.02856225      -0.00388428       0.00542450       0.01072305
Ti       3.40336689       2.75814133      25.20428816      -0.00310176       0.00403090      -0.00436137
Ti       2.58136862       5.48851367      25.21803490      -0.00078843      -0.00098228       0.00011107
Ti       0.83300214       1.96144581      26.44180235       0.00189822      -0.00356385      -0.00874333
Ti       0.02207809       4.70936567      26.48808180       0.00365869       0.00363944      -0.01277713
Ti       2.56823995       3.92456500      27.68680500      -0.00164451       0.00571225      -0.01293067
Ti       3.36885154       1.18476988      27.69951664       0.00210827      -0.00292112      -0.01138171
Ti       0.83291239       0.38869820      28.94177103       0.00052402       0.00065773       0.00172103
Ti       0.04934915       3.13336728      28.93601526      -0.00533969      -0.00060770      -0.00004679
Ti       2.57805967       2.36409841      30.17970461      -0.00008684       0.00100813       0.01032953
Ti       3.37921266       5.11090162      30.15940615      -0.00197392      -0.00507112       0.00882548
Ti       0.81520510       4.35211527      31.38024104       0.00104332       0.00179999       0.00953573
Ti       0.03267052       1.60252418      31.37621595       0.00185341       0.00024499       0.01191518
Ti       3.32352349       3.54462420       0.03105620       0.00088724       0.00522833       0.00437768
