52
Lattice="5.088765 0.0 0.0 0.0 5.495746 0.0 0.0 0.0 32.722931" Properties=species:S:1:pos:R:3:forces:R:3 job_name=C1-Zn-Zn-31-d-3.83 GB_type=C1 element=Zn system=Zn-31-d-3.83 distance=3.83 energy=-395.78003865 stress_kbar_3x3="_JSON [[-39.31530171, -0.5308795, 0.07756786], [-0.53087954, -30.56569819, 0.91491813], [0.07756786, 0.91491815, -19.93828604]]" pbc="T T T"
Ti       2.62600243       0.79284836      32.71548863       0.00485442       0.00047649       0.00145178
Ti       0.02982228       1.59832545       1.37261696       0.00444463       0.00133175      -0.00377600
Ti       0.81670826       4.34690292       1.36920808       0.00268484       0.00229851      -0.00556551
Ti       2.57187023       2.35812083       2.58373071       0.00096243      -0.00004304      -0.00191386
Ti       3.36611959       5.10615188       2.58567826       0.00190864      -0.00013548      -0.00306795
Ti       0.81387616       0.38850382       3.83042925       0.00308491      -0.00191230       0.00469950
Ti       0.03763730       3.13682835       3.82911442       0.00210579      -0.00070669       0.00321354
Ti       3.37409860       1.18291586       5.07239643       0.00274820      -0.00178166       0.00413183
Ti       2.56665794       3.93027437       5.07463431       0.00419127      -0.00130899       0.00635846
Ti       0.01443693       4.70128855       6.31899623       0.00264277      -0.00177240       0.00409265
Ti       0.83557339       1.95460524       6.31538606       0.00149586      -0.00182281       0.00388631
Ti       3.37470309       2.73762497       7.56844922       0.00278528      -0.00086458       0.00235509
Ti       2.56669422       5.48550067       7.56286602       0.00318570      -0.00077908      -0.00201632
Ti       0.83886898       3.53851520       8.81568765       0.00468936      -0.00244707      -0.00267867
Ti       0.02444636       0.78906819       8.81194466       0.00580703      -0.00424513      -0.00425755
Ti       2.56260914       1.56143654      10.06324802       0.00035955      -0.00431266       0.00276665
Ti       3.38560706       4.31691114      10.05740049       0.00119352      -0.00628071      -0.00211477
Ti       0.82358986       5.08941640      11.31236134       0.00252094      -0.00564933       0.00192860
Ti       0.02748049       2.34126256      11.29609639       0.00086422      -0.00723973      -0.00604790
Ti       3.37243700       0.38851711      12.56490247      -0.00067009      -0.00327245      -0.00325265
Ti       2.59140604       3.13438056      12.54272180      -0.00007301      -0.00784350      -0.00512099
Ti       0.03127842       3.89978268      13.79570411      -0.00337733      -0.00662077      -0.00067289
Ti       0.83953672       1.15732300      13.78106183       0.00047710      -0.00803678      -0.00511264
Ti       2.57539289       4.64436468      14.98929873      -0.00169908      -0.01404949       0.00655782
Ti       3.32510972       1.90264249      15.02698769      -0.01191809      -0.00486495       0.00414133
Ti       0.77455525       2.74492800      16.45983218      -0.00619730       0.00037773       0.01063307
Ti       0.09042965       0.00222735      16.34695900      -0.00556043       0.00074387      -0.00240748
Ti       3.39932960       1.96851448      17.79850371      -0.00275838      -0.00021148      -0.00486417
Ti       2.57765186       4.69739975      17.74795808      -0.00092643       0.01269318      -0.00955970
Ti       5.06142548       3.93067792      18.97285001       0.00011262       0.00937408       0.00567028
Ti       0.77553700       1.16972251      18.97170956      -0.00003769       0.00342336       0.00432099
Zn       3.32819269       0.38966770      20.19570454      -0.00804784       0.00564190       0.00641468
Ti       2.51793970       3.14463108      20.18805719      -0.00872464       0.00202115       0.00722145
Ti       0.79304034       5.11614119      21.42744462       0.00046835       0.00976875      -0.00515145
Ti       5.04626002       2.35205319      21.42052161       0.00142756      -0.00280675      -0.00711506
Ti       2.54232159       1.58328178      22.65977685      -0.00147481       0.00026732      -0.00605440
Ti       3.40466659       4.30516309      22.60911619      -0.01006150       0.00763033      -0.00150494
Ti       0.02778856       0.79529810      23.92901261      -0.00711419       0.00104484       0.00647685
Ti       0.83747255       3.55417275      23.87581901       0.00131443       0.00307582      -0.00236776
Ti       3.37626748       2.74833231      25.12435870      -0.00311911      -0.00470907       0.01035500
Ti       2.57890044       5.49076964      25.14115785       0.00012962       0.01197730       0.00137219
Ti       0.84896202       1.96182939      26.38045425      -0.00228555       0.00690291       0.00666755
Ti       0.03028011       4.70033421      26.39161514      -0.00004937       0.00442946       0.00502690
Ti       2.58075909       3.93272389      27.62983410      -0.00146949      -0.00211039      -0.00250509
Ti       3.38365673       1.18872494      27.62404719       0.00031873       0.00673228      -0.00944483
Ti       0.82340198       0.38958917      28.87766601       0.00112841      -0.00363876      -0.01844656
Ti       0.04925806       3.13139464      28.87895283       0.00101923      -0.00189678      -0.01877940
Ti       2.57810246       2.35599337      30.11626295       0.00585765       0.00069183      -0.00148850
Ti       3.37912951       5.10953077      30.12076020       0.00095561       0.00112666      -0.00462244
Ti       0.82530007       4.35327866      31.33084197       0.00335503       0.00120425       0.01228292
Ti       0.04322139       1.60270717      31.33305052       0.00270404       0.00477246       0.01518679
Ti       3.31989085       3.54205199      32.71046038       0.00376657       0.00335662       0.00269724
