52
Lattice="5.088765 0.0 0.0 0.0 5.495746 0.0 0.0 0.0 32.722931" Properties=species:S:1:pos:R:3:forces:R:3 job_name=C1-Zr-Zr-32-d-3.83 GB_type=C1 element=Zr system=Zr-32-d-3.83 distance=3.83 energy=-402.74254334 stress_kbar_3x3="_JSON [[-29.15298993, -0.0207136, 0.42082632], [-0.02071361, -19.4952688, 0.3460026], [0.42082632, 0.34600262, -7.94485842]]" pbc="T T T"
Ti       2.62141088       0.79792632       0.02287873       0.00175789      -0.00126204       0.00278129
Ti       0.02791979       1.60306006       1.38923778      -0.00153367       0.00001525       0.00043478
Ti       0.81778592       4.35112376       1.38474764       0.00208204       0.00035862      -0.00080340
Ti       2.56949008       2.36142438       2.59328970       0.00086308       0.00073823      -0.00104626
Ti       3.37032907       5.10899133       2.59525766       0.00167049       0.00073866       0.00071249
Ti       0.81766367       0.38903625       3.82909154       0.00131520       0.00099943       0.00017691
Ti       0.03495390       3.13746554       3.83010366      -0.00052859       0.00028035       0.00045370
Ti       3.37533918       1.18534684       5.06626884      -0.00001660       0.00062766       0.00053790
Ti       2.56315537       3.93318267       5.06889034       0.00095590       0.00011214      -0.00023573
Ti       0.00874524       4.70550347       6.30290791       0.00119938      -0.00113082       0.00096320
Ti       0.84073239       1.95708602       6.30289561       0.00014289      -0.00040920      -0.00058114
Ti       3.37968293       2.73702721       7.54205144       0.00115718      -0.00094819      -0.00128121
Ti       2.56125855       5.48608132       7.54002348       0.00023327      -0.00127188      -0.00162170
Ti       0.83735142       3.53726367       8.78175834       0.00064206      -0.00018147      -0.00125395
Ti       0.01805694       0.78911040       8.78286492      -0.00034994      -0.00065781      -0.00158833
Ti       2.55440577       1.56904680      10.01938208      -0.00121138      -0.00059900      -0.00063599
Ti       3.38611318       4.31811216      10.01497989       0.00093767      -0.00128232      -0.00151227
Ti       0.82848935       5.08787993      11.25803747      -0.00052202      -0.00093626      -0.00154628
Ti       0.01763264       2.34233327      11.25220665       0.00029284      -0.00087771      -0.00058027
Ti       3.36430834       0.38636443      12.48927148      -0.00068742      -0.00121370       0.00125610
Ti       2.58227587       3.13609131      12.48237814       0.00057714      -0.00237419       0.00123991
Ti       0.02667407       3.91094441      13.73294112      -0.00088112      -0.00179095      -0.00035471
Ti       0.83125484       1.15995100      13.71850366      -0.00122815      -0.00104087      -0.00062649
Ti       2.56516327       4.65891858      14.92152032       0.00000496      -0.00347740       0.00009232
Ti       3.35083913       1.90791910      14.91895035      -0.00021382      -0.00153679      -0.00195520
Ti       0.78662158       2.72406641      16.33570932      -0.00128193       0.00490812       0.00139027
Ti       0.08490428       5.47064904      16.30466318       0.00044620      -0.00319326       0.00095305
Ti       3.36230820       1.94735405      17.63888561       0.00063199       0.00157310       0.00068869
Ti       2.56304614       4.73358669      17.65774046      -0.00362505       0.00472189      -0.00015921
Ti       0.01908349       3.94718030      18.85760196      -0.00042466       0.00480851       0.00066503
Ti       0.75938191       1.15551189      18.92191876      -0.00281703      -0.00341199       0.00199055
Ti       3.37630359       0.41033555      20.17316722       0.00284513       0.00489950       0.00010837
Zr       2.57559577       3.16178106      20.20530499      -0.00026604      -0.00102726       0.00130444
Ti       0.73271597       5.12324077      21.45587643      -0.00622402       0.00491636       0.00105802
Ti       0.00527171       2.32785032      21.52245538      -0.00316766       0.00012935      -0.00022191
Ti       2.55360870       1.51863203      22.74035724       0.00109182      -0.00162197       0.00205321
Ti       3.39249983       4.31678496      22.79892923       0.00173278       0.00298355       0.00291189
Ti       0.03668290       0.80651239      23.98689224      -0.00134827      -0.00102122      -0.00209167
Ti       0.86504702       3.56581423      23.94540168       0.00110882      -0.00011923      -0.00259667
Ti       3.35695515       2.74438234      25.20448528       0.00040797      -0.00079160      -0.00218139
Ti       2.57026529       5.48999213      25.24592320      -0.00093552      -0.00055230      -0.00181331
Ti       0.83950928       1.95321665      26.46717851      -0.00072291      -0.00175155      -0.00182391
Ti       0.01688298       4.68920387      26.44445459       0.00005531       0.00033973       0.00116893
Ti       2.57482444       3.93275985      27.70433940       0.00157776       0.00164246       0.00063144
Ti       3.39353106       1.18535506      27.69355953       0.00118396      -0.00132335       0.00018777
Ti       0.81621498       0.38697911      28.91650128       0.00044859      -0.00016463       0.00130482
Ti       0.03779752       3.13688791      28.93451314       0.00068058       0.00281859       0.00254492
Ti       2.57397716       2.35503425      30.16258976      -0.00075069      -0.00104205      -0.00119662
Ti       3.36881568       5.10656365      30.17136775       0.00293732       0.00080754       0.00047322
Ti       0.83196755       4.34681104      31.36519621      -0.00197119       0.00044727      -0.00244979
Ti       0.03923212       1.59806039      31.36887743       0.00109953      -0.00065685      -0.00038542
Ti       3.32409810       3.54866068       0.00894645       0.00062791      -0.00119843       0.00245964
