52
Lattice="5.088765 0.0 0.0 0.0 5.495746 0.0 0.0 0.0 32.722931" Properties=species:S:1:pos:R:3:forces:R:3 job_name=C1-Zr-Zr-29-d-2.59 GB_type=C1 element=Zr system=Zr-29-d-2.59 distance=2.59 energy=-402.82883103 stress_kbar_3x3="_JSON [[-28.28549556, -0.00032267, 0.09640523], [-0.00032265, -19.73489415, -3.14620631], [0.09640525, -3.14620629, -9.09691526]]" pbc="T T T"
Ti       2.62177907       0.80087384       0.01734258      -0.00035599      -0.00196818      -0.00377545
Ti       0.02683903       1.60252460       1.38781953      -0.00269681       0.00094773      -0.01204960
Ti       0.81891840       4.35045706       1.38506871       0.00266246       0.00081583      -0.01159499
Ti       2.56910695       2.36178316       2.59030838       0.00149272       0.00001876      -0.00010151
Ti       3.37173664       5.10834789       2.59381196      -0.00130791      -0.00070686       0.00001799
Ti       0.81664025       0.38839254       3.82604253       0.00222962      -0.00017311       0.01279396
Ti       0.03548861       3.13673682       3.83107926      -0.00252236       0.00050357       0.01242843
Ti       3.37119295       1.18758708       5.06427144      -0.00044538       0.00010740       0.00740614
Ti       2.56243210       3.93600042       5.06754169       0.00167482      -0.00009822       0.00762388
Ti       0.00800689       4.71322414       6.29719826      -0.00036294       0.00037360       0.00075880
Ti       0.84330453       1.96207449       6.30377646      -0.00007310       0.00149665       0.00075910
Ti       3.38432894       2.74146953       7.53312142       0.00164427      -0.00064624      -0.00839584
Ti       2.56348502       5.49071962       7.54077734      -0.00177712      -0.00081431      -0.00949985
Ti       0.82462185       3.54899303       8.77037253      -0.00244190       0.00023920       0.00210305
Ti       0.01916987       0.80315302       8.78284004       0.00507180       0.00154520       0.00319515
Ti       2.55481271       1.60225590      10.01468193      -0.00544779      -0.00137403       0.00751741
Ti       3.38396712       4.34261246      10.02757796       0.00380297      -0.00006925       0.00748959
Ti       0.85248929       5.11483254      11.23910280      -0.00596735      -0.00264212       0.01467464
Ti       0.02597568       2.37316901      11.24824723       0.00478861       0.00213660       0.01198282
Ti       3.35483711       0.42114191      12.46782503       0.00636842      -0.00430072       0.00545990
Ti       2.58633683       3.16693700      12.50832089      -0.00373581       0.00299625       0.00620668
Ti       0.03920114       3.99505382      13.70481366       0.00510471       0.00370430      -0.00550656
Ti       0.80126791       1.23252059      13.73100700      -0.00799244      -0.00410086      -0.00249111
Ti       2.59060876       4.78784678      14.94001387      -0.00490188       0.00416231       0.00545314
Ti       3.42742792       2.02821179      14.95329244       0.00925341       0.00404795      -0.00604898
Ti       0.80451180       2.77969063      16.15579396      -0.01114495       0.00262211      -0.00167934
Ti       0.12103645       0.03747157      16.28846771       0.01162213      -0.01398863       0.00094692
Ti       3.17483377       1.80250684      17.69323340       0.00182735       0.00214605      -0.00434070
Ti       2.54211939       4.59322769      17.68190263      -0.01091339       0.00137727       0.00046714
Zr       5.06593643       3.81403838      18.91835939       0.00963261      -0.00333691      -0.01311788
Ti       0.85472739       1.08302163      19.00997710      -0.00629018      -0.00307973       0.00264419
Ti       3.32654576       0.38532333      20.21546363      -0.00340016      -0.00454794       0.00463381
Ti       2.54446907       3.07629318      20.25337103      -0.00277034       0.00333229       0.00169713
Ti       0.82128667       5.07329331      21.52664619       0.00163360      -0.00139419       0.00350985
Ti       0.01190665       2.28933854      21.52596319       0.00242804       0.00012259       0.00076915
Ti       2.55649565       1.53804539      22.72987184      -0.00162977      -0.00106168       0.00422007
Ti       3.39708030       4.31118358      22.71677497       0.00078541       0.00402938       0.00201047
Ti       0.01799617       0.78039277      23.99045402       0.00058772      -0.00040703       0.00129961
Ti       0.83255625       3.53459170      23.96428777      -0.00148457       0.00328895       0.00195674
Ti       3.37535964       2.73035428      25.20448110       0.00143469      -0.00021258      -0.00303761
Ti       2.56572145       5.47242623      25.20574480       0.00066289       0.00019248      -0.00552872
Ti       0.85024340       1.95010555      26.45369236       0.00113332      -0.00045903      -0.01420129
Ti       0.01891690       4.69510943      26.45293096      -0.00005757       0.00228227      -0.01410067
Ti       2.57292445       3.92896544      27.68773665       0.00011477       0.00220203      -0.01752980
Ti       3.38490277       1.17998484      27.67448759      -0.00086881       0.00084739      -0.01652043
Ti       0.82080337       0.38698669      28.92041723      -0.00081465       0.00007629      -0.00673380
Ti       0.04010024       3.13378668      28.92398312       0.00113413       0.00029199      -0.00752068
Ti       2.57569469       2.35996711      30.15578632      -0.00039223      -0.00009587       0.00937550
Ti       3.37692350       5.10954635      30.15835996       0.00214634      -0.00037308       0.00906993
Ti       0.82937361       4.35076271      31.36280779       0.00104702       0.00080923       0.00872404
Ti       0.03790255       1.60275381      31.36693243      -0.00156533       0.00091463       0.00914186
Ti       3.32259527       3.54856414       0.00909292       0.00107690      -0.00177972      -0.00256228
