52
Lattice="5.088765 0.0 0.0 0.0 5.495746 0.0 0.0 0.0 32.722931" Properties=species:S:1:pos:R:3:forces:R:3 job_name=C1-Zn-Zn-30-d-2.59 GB_type=C1 element=Zn system=Zn-30-d-2.59 distance=2.59 energy=-395.94710718 stress_kbar_3x3="_JSON [[-39.56205676, -0.14800002, 0.32364889], [-0.14800003, -29.93686451, -2.4118054], [0.32364888, -2.41180537, -23.2210054]]" pbc="T T T"
Ti       2.62803984       0.79544052      32.70094015       0.00370023      -0.00460180      -0.00374077
Ti       0.04230972       1.60525474       1.37421972       0.00453574       0.00103724      -0.00204215
Ti       0.82402903       4.35393084       1.37919348       0.00081967       0.00444789       0.00114485
Ti       2.56896960       2.35981136       2.59529796      -0.00194304      -0.00037316       0.01169856
Ti       3.36737357       5.10851918       2.58997569       0.00331029       0.00132968       0.01131408
Ti       0.81094673       0.38889506       3.84198804       0.00062010       0.00321166       0.01041045
Ti       0.03752411       3.13668687       3.83443964      -0.00102722       0.00151823       0.00960883
Ti       3.37280883       1.18841295       5.08750621      -0.00039392       0.00564605      -0.00449890
Ti       2.57319726       3.93490455       5.08507595       0.00180987       0.00546045      -0.00339610
Ti       0.01294341       4.71172375       6.33420897       0.00188530       0.00038071      -0.00146753
Ti       0.83585072       1.96640187       6.32857916      -0.00047589      -0.00003653       0.00021150
Ti       3.37324761       2.74631548       7.58462277       0.00184939       0.00137505       0.00597042
Ti       2.56638982       5.49448250       7.57230035      -0.00146833      -0.00096172       0.00743676
Ti       0.83172080       3.55448489       8.83632163      -0.00121676       0.00619947       0.00241561
Ti       0.03342793       0.80182855       8.83257307      -0.00421349       0.00869405      -0.00102017
Ti       2.56036923       1.59631593      10.09026302       0.00214706       0.00999594       0.00344127
Ti       3.37583404       4.35314701      10.08146656       0.00125167       0.00632685      -0.00352648
Ti       0.82306018       5.12542038      11.34041501      -0.00281687      -0.00156773       0.00062018
Ti       0.01384730       2.37328604      11.31501688       0.00372556       0.00217881      -0.00649089
Ti       3.36450072       0.43421729      12.58131500      -0.00571762       0.00884860      -0.00516650
Ti       2.59449841       3.17609565      12.55972652      -0.01041722      -0.00368061      -0.00256129
Ti       0.03652135       3.96662526      13.84209223       0.00509626       0.01313760      -0.00023263
Ti       0.80488153       1.23433974      13.81811454       0.00648238       0.00029973      -0.00331189
Ti       2.52651505       4.79035015      15.01295310       0.00234455       0.00500025      -0.00312846
Ti       3.36935646       2.05302745      15.06355900      -0.00339030       0.00974174       0.00424642
Ti       0.78210703       2.76948034      16.42914550      -0.00116619       0.01505564      -0.00318174
Ti       0.03884607       5.46653226      16.34962881      -0.00037458      -0.01787612       0.00857216
Ti       3.34066724       1.79840927      17.76001576      -0.00377401      -0.00272025       0.00075666
Ti       2.60228474       4.53378026      17.72094605      -0.00000934      -0.00765044       0.01777840
Ti       5.04596170       3.90599301      18.96990295      -0.00417955       0.00914711      -0.00246410
Zn       0.80178849       1.12271609      18.88269642      -0.00898617      -0.00831062      -0.00024147
Ti       3.29597726       0.36782921      20.16349855       0.00315500      -0.00962773      -0.00794760
Ti       2.51042988       3.09360329      20.14860821       0.00703021      -0.01264629      -0.00267566
Ti       0.85545584       5.04328937      21.37448939      -0.01002565       0.00152573       0.01191041
Ti       0.02580400       2.30656167      21.38244191      -0.00681091      -0.00254228      -0.01459705
Ti       2.56563729       1.55499218      22.67621924      -0.00437352       0.00092104       0.01349850
Ti       3.39610905       4.30743500      22.59782030      -0.00529297      -0.00793515      -0.01520532
Ti       0.02215449       0.77787394      23.87518722       0.00821772      -0.01452850      -0.01037141
Ti       0.81904153       3.52975312      23.86255841       0.01315066       0.00280236       0.00264697
Ti       3.39024963       2.73198250      25.13813107      -0.00291629       0.00550984       0.01022457
Ti       2.58834582       5.46950581      25.12770011      -0.00129141      -0.01053041       0.00722783
Ti       0.85546017       1.95131571      26.36632252      -0.00072665      -0.01508581       0.00875479
Ti       0.03372584       4.69689290      26.38591150      -0.00236263       0.00618670       0.00996828
Ti       2.57842812       3.92535225      27.62656733       0.00115037      -0.00935005      -0.00132685
Ti       3.37934047       1.17841962      27.62615420       0.00629601      -0.00127286      -0.00754119
Ti       0.82819771       0.38415582      28.87588608      -0.00123699       0.00107787      -0.00366980
Ti       0.05173064       3.12870770      28.86312535       0.00524461      -0.00353085      -0.00895297
Ti       2.58765137       2.35555670      30.12207430      -0.00079977       0.00403768      -0.01138609
Ti       3.38184751       5.10426652      30.11445320       0.00012456      -0.00232938      -0.01442984
Ti       0.81791589       4.34586808      31.33592025       0.00396788      -0.00055444      -0.00933536
Ti       0.03537842       1.59809166      31.33199659      -0.00232026      -0.00048092      -0.00624220
Ti       3.31823971       3.54211454       0.00664016       0.00181246      -0.00290031       0.00029492
