52
Lattice="5.088765 0.0 0.0 0.0 5.495746 0.0 0.0 0.0 32.722931" Properties=species:S:1:pos:R:3:forces:R:3 job_name=C1-Zr-Zr-31-d-3.83 GB_type=C1 element=Zr system=Zr-31-d-3.83 distance=3.83 energy=-402.74199726 stress_kbar_3x3="_JSON [[-28.62233041, -0.01269997, -0.33473332], [-0.01269998, -19.14613666, 0.22174445], [-0.33473332, 0.22174444, -7.90616768]]" pbc="T T T"
Ti       2.61577090       0.79699018       0.00832184       0.00277511       0.00511889       0.00073191
Ti       0.03355591       1.60210618       1.38958429      -0.00611224      -0.00219050      -0.01418420
Ti       0.81765341       4.34985872       1.38998051       0.00637980      -0.00136940      -0.01047461
Ti       2.56811623       2.35965645       2.59455637      -0.00413932       0.00398859      -0.00298950
Ti       3.36866794       5.10707489       2.59546344      -0.00133633       0.00249664      -0.00833879
Ti       0.81464103       0.38650696       3.83048971       0.00163505       0.00152965      -0.00296798
Ti       0.03348556       3.13367165       3.83031457      -0.00162304       0.00384605      -0.00267314
Ti       3.37293297       1.18389404       5.06734314      -0.00065351       0.00090959      -0.00045879
Ti       2.56230637       3.93129929       5.06695533       0.00073649       0.00187599      -0.00291972
Ti       0.00833909       4.70487881       6.30106044       0.00011732       0.00043435      -0.00627355
Ti       0.84001422       1.95683823       6.30398139       0.00014521       0.00037804      -0.00638540
Ti       3.37776621       2.73920588       7.53964872      -0.00111016      -0.00163735      -0.00765496
Ti       2.55943078       5.48558717       7.54298639      -0.00180809      -0.00159484      -0.00687528
Ti       0.83030233       3.53967709       8.78194424      -0.00228351      -0.00218588      -0.00292506
Ti       0.01102013       0.79175241       8.78187865      -0.00160567      -0.00203229      -0.00462169
Ti       2.55174570       1.57322966      10.01552165      -0.00184932      -0.00223532       0.00039714
Ti       3.38406290       4.31945150      10.02423653       0.00045170      -0.00189634      -0.00569557
Ti       0.83324184       5.09510348      11.25108736      -0.00297552      -0.00308053       0.01336952
Ti       0.01986028       2.34374721      11.25987614       0.00135509      -0.00307858       0.00589782
Ti       3.35378633       0.39259732      12.48584134      -0.00173980      -0.00218709       0.01069577
Ti       2.56855521       3.13738735      12.49461475       0.00280723      -0.00033662       0.00855845
Ti       0.01276887       3.91303344      13.71904121       0.00926190      -0.00293789       0.01469526
Ti       0.82125050       1.16800095      13.73754784      -0.00315043      -0.00317296       0.00818527
Ti       2.58189697       4.66245076      14.92613184       0.00252837      -0.00422605      -0.00296107
Ti       3.37660269       1.91817575      14.92748095      -0.00563219      -0.00481152      -0.00728877
Ti       0.76167083       2.72346961      16.30333036      -0.00079222      -0.00888492      -0.00486771
Ti       0.05534092       5.46921963      16.33924063       0.01094088       0.00452275      -0.00703560
Ti       3.37143951       1.98001041      17.66122069       0.00194091      -0.00210428      -0.00981871
Ti       2.56863395       4.68714535      17.64349149       0.00435336       0.01107262      -0.01344821
Ti       0.08386250       3.89811586      18.92180968       0.00851101       0.00610416      -0.01008790
Ti       0.83037144       1.19576413      18.86160962      -0.00365626      -0.00009800      -0.01112387
Zr       3.36112859       0.40725338      20.20402160      -0.00212983       0.01809588      -0.00799273
Ti       2.55997699       3.15360575      20.17708434       0.00052122      -0.00599557      -0.01382430
Ti       0.84281170       5.07009261      21.52002472       0.00097716       0.00809617      -0.00744568
Ti       0.11009316       2.36768390      21.45499620      -0.00393867       0.00538155       0.00050686
Ti       2.54181065       1.56894282      22.79545844       0.00490693      -0.00218000      -0.00903097
Ti       3.38668127       4.26773976      22.73871282      -0.00511565       0.00088843      -0.00441631
Ti       5.07056124       0.81803116      23.94449443       0.00604632       0.00047017       0.00414912
Ti       0.81272148       3.55472594      23.97971599       0.00017829      -0.00301627       0.01112586
Ti       3.36485442       2.74482618      25.24039050       0.00560279       0.00055634       0.01319506
Ti       2.57787564       5.49428835      25.20063202      -0.00087676      -0.00492955       0.00952931
Ti       0.83319160       1.94378325      26.44041639      -0.00183839       0.00040631       0.01071269
Ti       0.00998722       4.70237301      26.46401251      -0.00243375      -0.00680793       0.00454150
Ti       2.54222005       3.93556908      27.69262715       0.00413881      -0.00338957       0.00569750
Ti       3.36447083       1.18727392      27.69406562      -0.00476641      -0.00104930       0.01891670
Ti       0.80993015       0.39429739      28.93163231      -0.00120905      -0.00332299       0.01149555
Ti       0.03102529       3.13770599      28.91322291       0.00137924       0.00170136       0.01379484
Ti       2.57373537       2.35797784      30.16733161      -0.00591814       0.00169052       0.01503510
Ti       3.36505027       5.10473180      30.15985815       0.00105902      -0.00457461       0.01444563
Ti       0.81332879       4.34466161      31.36758197      -0.00345369      -0.00350399       0.00590184
Ti       0.01903060       1.59689946      31.37103232      -0.00033503       0.00205010      -0.00587190
Ti       3.31736032       3.54203326       0.01937188      -0.00626621       0.00721600      -0.00092671
