52
Lattice="5.088765 0.0 0.0 0.0 5.495746 0.0 0.0 0.0 32.722931" Properties=species:S:1:pos:R:3:forces:R:3 job_name=C1-Zn-Zn-34-d-5.07 GB_type=C1 element=Zn system=Zn-34-d-5.07 distance=5.07 energy=-395.84537809 stress_kbar_3x3="_JSON [[-37.8769132, 0.46820332, 1.65758896], [0.46820332, -30.67584398, -0.26007795], [1.65758896, -0.26007796, -20.09187825]]" pbc="T T T"
Ti       2.60641347       0.79482774      32.71998721      -0.00149101       0.00060509       0.01207163
Ti       0.02171060       1.60334156       1.36635182      -0.00545621      -0.00035595       0.00594536
Ti       0.80282443       4.34745274       1.36272378      -0.00219727      -0.00001606       0.00655911
Ti       2.57065073       2.36158555       2.57886072      -0.00387301       0.00080800      -0.00240457
Ti       3.36528702       5.10728581       2.58476799      -0.00413800       0.00085551      -0.00113390
Ti       0.80905806       0.38814967       3.81997077      -0.00296114       0.00126614      -0.00395438
Ti       0.03338033       3.13557276       3.83286327      -0.00279524       0.00243989      -0.00139577
Ti       3.36158007       1.18256875       5.07248913      -0.00567172      -0.00007577      -0.00251556
Ti       2.55729722       3.93267705       5.07050569      -0.00557863       0.00154196      -0.00208904
Ti       0.01275976       4.70705121       6.30936441      -0.00303440       0.00000415      -0.00602553
Ti       0.83299165       1.95418936       6.32249830      -0.00385890      -0.00195774      -0.00142814
Ti       3.36662297       2.74055884       7.55346571      -0.00479523      -0.00054344      -0.00035302
Ti       2.56049297       5.48712413       7.57424615      -0.00485583      -0.00082761       0.00493619
Ti       0.80595507       3.53988881       8.81158623      -0.00241352       0.00313764      -0.00188110
Ti       5.08424895       0.79600158       8.81612836      -0.00801884      -0.00012807      -0.00043663
Ti       2.54527651       1.58080842      10.04958773      -0.00552202       0.00035339      -0.01145480
Ti       3.36816130       4.31159809      10.07645296      -0.00371872       0.00307898      -0.00575179
Ti       0.81630135       5.09903380      11.28047901      -0.00531822      -0.00105681      -0.00579064
Ti       0.02090365       2.34757378      11.33048778       0.00318225       0.00158483      -0.00167739
Ti       3.31355337       0.40303143      12.53809606      -0.00483655      -0.00157561      -0.00302439
Ti       2.53599165       3.15293313      12.57836149      -0.00986338       0.00172410       0.00230030
Ti       5.07606375       3.92653135      13.75831020      -0.00062028       0.00366772      -0.00403096
Ti       0.79390688       1.17198118      13.82867429       0.00477195      -0.00846630       0.00330701
Ti       2.65089349       4.68984073      15.05044427       0.00322110      -0.00093668       0.00396248
Ti       3.38463159       1.94139298      14.97606941      -0.00208857      -0.00525634       0.00146940
Ti       0.72288465       2.77991582      16.24423640      -0.00193564       0.01595688      -0.00552008
Ti       0.08989658       0.02424358      16.55224108       0.00449194      -0.00031988       0.00316936
Ti       3.20140558       1.85932489      17.70483935       0.00218920       0.00727997      -0.00059285
Ti       2.55330061       4.58313374      17.80815213       0.00688516       0.00091068      -0.01478002
Ti       0.01268034       3.85891101      18.97861000      -0.00079388       0.00076083      -0.00663525
Ti       0.95755405       1.10134054      19.06600638      -0.00368546      -0.00249426      -0.00302692
Ti       3.50043816       0.44849941      20.10376225       0.01602271       0.00542200      -0.00564672
Ti       2.64337499       3.17469935      20.25193397       0.00941557      -0.00465865       0.00691747
Ti       0.79563462       5.10021410      21.43299525      -0.00786736      -0.00738795       0.00520809
Zn       0.08496929       2.34940810      21.44186470      -0.00216607      -0.00029043       0.00022959
Ti       2.63904180       1.51950158      22.61340402       0.01292865      -0.00110227       0.00156384
Ti       3.49741354       4.27117079      22.74499520       0.01150780      -0.00521226       0.00779083
Ti       0.00325753       0.80383804      23.89159146      -0.00671551      -0.00866584       0.00649459
Ti       0.93068765       3.55844826      23.85646196       0.00284364       0.00252617       0.00265363
Ti       3.33507229       2.77188529      25.15409267       0.00312467      -0.00521450      -0.00094751
Ti       2.54491602       0.03963513      25.12695494       0.00778895      -0.00037691       0.00397406
Ti       0.81092004       1.95792867      26.41299671       0.00364888       0.00034247      -0.00006388
Ti       0.02148940       4.69975774      26.33383551       0.00247381      -0.00189954      -0.00598586
Ti       2.55406130       3.94755494      27.62929144       0.00251990       0.00223499      -0.00450955
Ti       3.37492270       1.17984194      27.62779043       0.00576623      -0.00306536      -0.00760227
Ti       0.78745027       0.39573283      28.85129158      -0.00011250      -0.00448394       0.00238291
Ti       0.00919686       3.15545549      28.86696369       0.00054061       0.00342361       0.00121627
Ti       2.54934444       2.36359777      30.09971248       0.00430053      -0.00411969       0.00999789
Ti       3.33613175       5.10480711      30.12119682       0.00460857       0.00790418       0.00935434
Ti       0.81060126       4.34960392      31.32413633       0.00343879       0.00167283       0.00395156
Ti       0.02238519       1.60596628      31.32866210       0.00264058       0.00124450       0.00367796
Ti       3.29971643       3.54148806      32.68834542      -0.00192843      -0.00025866       0.00152462
