52
Lattice="5.088765 0.0 0.0 0.0 5.495746 0.0 0.0 0.0 32.722931" Properties=species:S:1:pos:R:3:forces:R:3 job_name=C1-Zn-Zn-25-d-0.00 GB_type=C1 element=Zn system=Zn-25-d-0.00 distance=0.0 energy=-395.74192947 stress_kbar_3x3="_JSON [[-39.49078483, -2.10153664, 0.00452913], [-2.10153668, -27.51192023, 0.0014123], [0.00452916, 0.00141228, -20.56030024]]" pbc="T T T"
Ti       2.62283559       0.79349415       0.00016890       0.00104590       0.00104761       0.00129855
Ti       0.02822202       1.59647437       1.37878261       0.00021040      -0.00012689       0.00470293
Ti       0.81610646       4.34586296       1.37684049      -0.00188873       0.00000164       0.00478808
Ti       2.57022473       2.35611028       2.59102340      -0.00074795       0.00121034       0.00337069
Ti       3.36315444       5.10431526       2.59196709      -0.00305163       0.00142871       0.00551618
Ti       0.81280029       0.38783449       3.83687752       0.00229549       0.00401831      -0.00059160
Ti       0.03552780       3.13561873       3.83569883       0.00198419       0.00201383       0.00156489
Ti       3.37290954       1.18070584       5.07593650       0.00144328      -0.00031258       0.00271709
Ti       2.56378863       3.92724604       5.08106306      -0.00021446      -0.00143875       0.00824846
Ti       0.01550893       4.70005953       6.32121179       0.00475292      -0.00001666       0.00785669
Ti       0.83132366       1.95333176       6.31994246      -0.00092191      -0.00324704       0.01349761
Ti       3.37620543       2.74346491       7.57017403       0.00269105       0.00342707       0.00930043
Ti       2.57239487       5.49024265       7.57135023       0.00198442       0.00762650       0.00602923
Ti       0.83778230       3.54287472       8.80857271       0.01195543       0.00390915       0.00053869
Ti       0.01826150       0.79323093       8.82444583       0.00756254      -0.00198127       0.01491875
Ti       2.56342011       1.56604092      10.06070851       0.00094016      -0.00867697       0.00390967
Ti       3.38084047       4.31978923      10.06282979       0.00552957      -0.00212040       0.01719385
Ti       0.82427328       5.09269338      11.32072931      -0.00895167      -0.00520409       0.00224048
Ti       0.05751058       2.36579749      11.30163244      -0.00410051       0.00925345       0.00173739
Ti       3.39171005       0.41847824      12.55609271       0.01054962       0.00719060       0.00444442
Ti       2.59525633       3.17310233      12.57374673       0.00619588      -0.00859009       0.00630677
Ti       0.01164603       3.92683297      13.79707914      -0.00807727      -0.00708641       0.00597423
Ti       0.85179746       1.11869913      13.78758691      -0.01044075      -0.00598580       0.01254704
Ti       2.55737121       4.65205215      14.96664524      -0.00605140      -0.00088660       0.00281873
Ti       3.26591376       1.88361710      14.99956304      -0.01002965      -0.00462097      -0.00477490
Zn       0.72325676       2.76646282      16.36152085      -0.01710520       0.00851498       0.00001569
Ti       0.11272911       0.08789544      16.36145328       0.00863291       0.01264975       0.00044624
Ti       3.26596973       1.88391194      17.72321504      -0.00949674      -0.00662404       0.00593576
Ti       2.55739731       4.65204554      17.75621709      -0.00591457       0.00123085      -0.00279566
Ti       0.01173130       3.92699210      18.92575816      -0.00828478      -0.00770250      -0.00610642
Ti       0.85191005       1.11878276      18.93533365      -0.01116204      -0.00491522      -0.01336439
Ti       3.39173943       0.41858917      20.16699885       0.01151067       0.00808289      -0.00684557
Ti       2.59528130       3.17331458      20.14943177       0.00644093      -0.00964919      -0.00879593
Ti       0.82437966       5.09300266      21.40226219      -0.00966378      -0.00585656      -0.00163541
Ti       0.05758799       2.36599149      21.42146663      -0.00472102       0.00965517      -0.00162591
Ti       2.56352244       1.56628745      22.66221182       0.00087240      -0.00875447      -0.00157751
Ti       3.38092568       4.32007066      22.66025802       0.00571794      -0.00236257      -0.01562928
Ti       0.01833317       0.79355082      23.89850465       0.00803385      -0.00223979      -0.01358076
Ti       0.83792871       3.54317946      23.91427785       0.01215493       0.00402247       0.00089618
Ti       3.37619314       2.74378321      25.15235575       0.00263777       0.00399542      -0.00740960
Ti       2.57246815       5.49061872      25.15138196       0.00137474       0.00734170      -0.00473583
Ti       0.83122271       1.95369783      26.40282922      -0.00044576      -0.00360366      -0.01346465
Ti       0.01564419       4.70026425      26.40135896       0.00434058       0.00083557      -0.00749163
Ti       2.56396560       3.92748470      27.64192257      -0.00032958      -0.00147345      -0.01114613
Ti       3.37294574       1.18095605      27.64692126       0.00171662      -0.00069747      -0.00544389
Ti       0.81274664       0.38798112      28.88616672       0.00201863       0.00454946      -0.00274240
Ti       0.03546909       3.13589127      28.88758115       0.00222207       0.00077267      -0.00479274
Ti       2.57014759       2.35624908      30.13190597      -0.00071617       0.00135353      -0.00374919
Ti       3.36306132       5.10450713      30.13117610      -0.00278963       0.00163783      -0.00575613
Ti       0.81632672       4.34610560      31.34604680      -0.00216296      -0.00027174      -0.00289992
Ti       0.02850166       1.59663794      31.34432106       0.00014741       0.00025819      -0.00310372
Ti       3.32000349       3.54242747      32.72265935       0.00030584      -0.00158249       0.00124445
