52
Lattice="5.088765 0.0 0.0 0.0 5.495746 0.0 0.0 0.0 32.722931" Properties=species:S:1:pos:R:3:forces:R:3 job_name=C1-Zr-Zr-25-d-0.00 GB_type=C1 element=Zr system=Zr-25-d-0.00 distance=0.0 energy=-402.99173729 stress_kbar_3x3="_JSON [[-28.79533793, 1.5010783, 0.00492386], [1.50107833, -19.54956951, -0.0018061], [0.00492389, -0.00180612, -9.88214388]]" pbc="T T T"
Ti       2.61615878       0.79947734       0.00021115      -0.00023419      -0.00189471       0.00090703
Ti       0.02683726       1.59911440       1.37228425      -0.00505245       0.00030869      -0.01085541
Ti       0.81749218       4.34637618       1.37421998       0.00241143      -0.00060957      -0.01561255
Ti       2.57051074       2.35828296       2.57989233      -0.00258770       0.00544032      -0.01521013
Ti       3.36729176       5.10531671       2.58261208       0.00238008       0.00240991      -0.01278262
Ti       0.81321651       0.38907928       3.81481482      -0.00336760       0.00320290      -0.00295158
Ti       0.03216043       3.13568570       3.82137823      -0.00229102       0.00099730      -0.00167051
Ti       3.36937198       1.18455849       5.05640198      -0.00333245       0.00021730       0.00358842
Ti       2.55468684       3.93297212       5.05482713       0.00199583      -0.00280076       0.00434037
Ti       0.00920130       4.70452359       6.28289270      -0.00357629      -0.00411389       0.00879214
Ti       0.83788464       1.95388602       6.29529080      -0.00167454      -0.00031784       0.00000334
Ti       3.37271912       2.74202448       7.52414854       0.00572825      -0.00183607      -0.00119417
Ti       2.56160043       5.48718674       7.54144766      -0.00037253      -0.00202173      -0.00630503
Ti       0.82158056       3.54478112       8.76644181       0.00021866      -0.00111086      -0.00666884
Ti       5.08572222       0.79635471       8.77598531      -0.00384515       0.00293505      -0.01078206
Ti       2.54494367       1.57107201      10.00184194       0.00220145       0.00490411      -0.00431232
Ti       3.38212905       4.30855804      10.02523456      -0.00040610      -0.00059234      -0.00476331
Ti       0.83197583       5.09456239      11.22777163      -0.00191284      -0.00040087      -0.00298589
Ti       0.03088161       2.34629305      11.25828608       0.00299385      -0.00242289       0.00294758
Ti       3.34615359       0.40075166      12.47106282       0.00296933       0.00011948       0.00404651
Ti       2.55269043       3.15627669      12.51533333      -0.00514627      -0.00235908       0.00458321
Ti       5.08309355       3.92133444      13.67850897       0.00408431      -0.00090851       0.00422960
Ti       0.83607340       1.13469232      13.72344844       0.00258599      -0.00184715      -0.00317580
Ti       2.64394363       4.69682804      14.95968520       0.00045155      -0.00571919       0.00238603
Ti       3.39423063       1.90960594      14.92893857       0.00116077       0.00815068       0.00156451
Zr       0.79523043       2.73640766      16.36122367       0.00291895      -0.00807686      -0.00193557
Ti       0.05965765       0.01553182      16.36190313       0.00614602       0.00588256      -0.00072034
Ti       3.39412764       1.91006050      17.79383883       0.00136636       0.00846351      -0.00251035
Ti       2.64339516       4.69722993      17.76349880       0.00005735      -0.00557548      -0.00310088
Ti       5.08342063       3.92172352      19.04415725       0.00405115      -0.00122713      -0.00222328
Ti       0.83611019       1.13506979      18.99960076       0.00266487      -0.00105071       0.00506752
Ti       3.34636469       0.40094519      20.25177332       0.00300820       0.00034562      -0.00060429
Ti       2.55292796       3.15650714      20.20774572      -0.00474802      -0.00251195      -0.00098939
Ti       0.83212840       5.09489574      21.49510082      -0.00195781      -0.00093329       0.00444848
Ti       0.03089206       2.34656519      21.46477037       0.00287136      -0.00219349      -0.00150685
Ti       2.54502846       1.57135153      22.72108103       0.00253722       0.00518539       0.00293364
Ti       3.38222455       4.30897356      22.69777797      -0.00003543      -0.00052327       0.00361013
Ti       5.08593031       0.79662619      23.94702892      -0.00433731       0.00314641       0.00749122
Ti       0.82167678       3.54505556      23.95640825       0.00037057      -0.00066133       0.00359505
Ti       3.37272774       2.74234053      25.19881059       0.00602340      -0.00175909      -0.00323314
Ti       2.56164474       5.48750817      25.18155949      -0.00050254      -0.00225811       0.00238692
Ti       0.83803032       1.95420776      26.42767711      -0.00228697       0.00006048      -0.00223641
Ti       0.00926188       4.70474636      26.43991375      -0.00318039      -0.00355356      -0.01112091
Ti       2.55487905       3.93325101      27.66798511       0.00172341      -0.00216188      -0.00383593
Ti       3.36950004       1.18490155      27.66631781      -0.00332521      -0.00003177      -0.00314794
Ti       0.81321242       0.38935078      28.90800256      -0.00317156       0.00349082       0.00396975
Ti       0.03214777       3.13597862      28.90157671      -0.00229931       0.00089893       0.00291661
Ti       2.57049492       2.35852185      30.14287542      -0.00315408       0.00534518       0.01688967
Ti       3.36728250       5.10560176      30.14034367       0.00299209       0.00233402       0.01447049
Ti       0.81771282       4.34683541      31.34869440       0.00187647      -0.00100255       0.01750588
Ti       0.02704090       1.59948471      31.35077068      -0.00478041       0.00056371       0.01277436
Ti       3.31763407       3.54538458      32.72280957      -0.00021074      -0.00192644       0.00098706
