52
Lattice="5.088765 0.0 0.0 0.0 5.495746 0.0 0.0 0.0 32.722931" Properties=species:S:1:pos:R:3 job_name=C1-Zn-Zn-33-d-5.07 GB_type=C1 element=Zn system=Zn-33-d-5.07 distance=5.07 energy=-395.83158533 pbc="T T T"
Ti       2.63155815       0.79172331      32.69812913
Ti       0.04192442       1.59741113       1.36898658
Ti       0.82352932       4.34918657       1.37094414
Ti       2.56863872       2.35884193       2.57720009
Ti       3.36974850       5.10991314       2.57309484
Ti       0.81405067       0.39117770       3.82712814
Ti       0.03766482       3.13765766       3.81629998
Ti       3.37519591       1.18366354       5.07637175
Ti       2.57480020       3.93001156       5.07813241
Ti       0.01632245       4.70073064       6.33123032
Ti       0.83451457       1.95476873       6.31850273
Ti       3.37878498       2.73769731       7.57830364
Ti       2.56771020       5.48629161       7.55861455
Ti       0.85002436       3.54434095       8.81307037
Ti       0.03744033       0.79168105       8.80690622
Ti       2.56660877       1.57062470      10.06271055
Ti       3.39072511       4.33054370      10.03824308
Ti       0.82466831       5.09896681      11.31777168
Ti       0.03270591       2.35058639      11.27481619
Ti       3.39713457       0.40005232      12.57909975
Ti       2.61823673       3.14221207      12.53655473
Ti       0.04540408       3.91754868      13.82541208
Ti       0.85704038       1.18043433      13.76478579
Ti       2.55662797       4.68754586      14.97224376
Ti       3.29202381       1.93930591      15.04812941
Ti       0.76010360       2.75903079      16.52487708
Ti       0.11765050       0.03339591      16.25240867
Ti       3.38857417       1.84272577      17.79904431
Ti       2.72088117       4.61088902      17.70577745
Ti       4.99935074       3.85274803      19.05992415
Ti       0.83993904       1.13204775      18.99010430
Ti       3.30320259       0.42523233      20.25307937
Ti       2.45369935       3.19874463      20.11489762
Zn       0.77030414       5.10041794      21.44308328
Ti       0.04740443       2.35241386      21.42867127
Ti       2.44766385       1.53430303      22.72297287
Ti       3.29899185       4.27673459      22.60883992
Ti       5.02071098       0.81121921      23.85865357
Ti       0.85476581       3.53848848      23.87435876
Ti       3.38876740       2.78423573      25.13453370
Ti       2.60321033       0.01508753      25.15518352
Ti       0.82875096       1.95367246      26.34953270
Ti       0.03647552       4.71190846      26.42198320
Ti       2.56195705       3.92496560      27.63916874
Ti       3.38452595       1.19996073      27.63433656
Ti       0.83551754       0.40482426      28.86974676
Ti       0.05435099       3.13783124      28.85662624
Ti       2.59613976       2.36160798      30.11905650
Ti       3.37676129       5.10339779      30.10753418
Ti       0.82679556       4.35580765      31.32705983
Ti       0.03590732       1.60091821      31.33139858
Ti       3.33021905       3.54337823       0.00067094
