52
Lattice="5.088765 0.0 0.0 0.0 5.495746 0.0 0.0 0.0 32.722931" Properties=species:S:1:pos:R:3 job_name=C1-Zn-Zn-27-d-1.38 GB_type=C1 element=Zn system=Zn-27-d-1.38 distance=1.38 energy=-396.51267426 pbc="T T T"
Ti       2.61525196       0.31627681      32.67149853
Ti       0.48898535       1.80091313       1.28867526
Ti       0.38213485       4.55072822       1.28795598
Ti       2.50621327       3.07409017       2.63017630
Ti       3.45029856       0.32571080       2.63159054
Ti       0.89558714       0.41850148       3.68789710
Ti       5.06002722       3.16759701       3.68765432
Ti       3.20274718       1.57230804       5.05606223
Ti       2.74706346       4.31984566       5.05360675
Ti       0.01973855       5.19988268       6.34401185
Ti       0.84247365       2.45409312       6.34336519
Ti       3.41129581       3.09438895       7.57286661
Ti       2.53237966       0.34168225       7.57395778
Ti       0.80358354       3.85657606       8.83205822
Ti       0.05376250       1.10605719       8.82841829
Ti       2.59842921       1.89786957      10.10196126
Ti       3.34635798       4.64887884      10.10327828
Ti       0.89248047       5.44377699      11.34465867
Ti       5.05103220       2.68695321      11.34593637
Ti       3.34624938       0.52662258      12.59159904
Ti       2.57000814       3.27954832      12.56333114
Ti       0.31739637       4.39419066      13.87579451
Ti       0.49881616       1.66303381      13.92304356
Ti       2.42126283       0.25993692      15.26482351
Ti       3.42125679       3.05429187      15.25934684
Ti       0.86586349       2.99196882      16.33280429
Ti       4.93810988       0.20055756      16.25310901
Zn       3.17708280       1.73466229      17.65731416
Ti       2.78093108       4.49264800      17.64905654
Ti       5.00230342       3.48386826      18.96043257
Ti       0.78318536       0.72690380      18.86284600
Ti       3.44541857       0.12957663      20.09515448
Ti       2.47309550       2.88224078      20.09335926
Ti       0.82108932       4.80546712      21.37617280
Ti       0.06294188       2.03297021      21.38279320
Ti       2.58319069       1.21583989      22.65353152
Ti       3.37905878       3.95870158      22.61121105
Ti       0.01168784       0.43642999      23.88654299
Ti       0.85159824       3.19837246      23.87895979
Ti       3.37305199       2.39718372      25.12604732
Ti       2.59770799       5.14333246      25.11501102
Ti       0.83953392       1.54851414      26.39078453
Ti       0.05193268       4.29486910      26.39828409
Ti       2.56695480       3.51388876      27.64198014
Ti       3.40153386       0.77064326      27.63767999
Ti       0.80803059       5.46186289      28.89939428
Ti       0.07385755       2.70919073      28.89212987
Ti       2.62740666       1.82473644      30.16864480
Ti       3.34833060       4.57634166      30.16667607
Ti       0.89053795       3.72660764      31.42269602
Ti       5.07313880       0.98170860      31.42658139
Ti       3.34959266       3.06031770      32.67637169
