52
Lattice="5.088765 0.0 0.0 0.0 5.495746 0.0 0.0 0.0 32.722931" Properties=species:S:1:pos:R:3:forces:R:3 job_name=C1-Zn-Zn-32-d-3.83 GB_type=C1 element=Zn system=Zn-32-d-3.83 distance=3.83 energy=-395.78047868 stress_kbar_3x3="_JSON [[-38.41877927, 0.47398342, 0.02803312], [0.47398343, -29.64000412, 0.98459669], [0.02803312, 0.98459673, -19.09329636]]" pbc="T T T"
Ti       2.61723879       0.79345503      32.70964159      -0.00083844       0.00246276      -0.00266761
Ti       0.03273068       1.60018767       1.36622933      -0.00089299      -0.00470299       0.00434911
Ti       0.81844730       4.34647057       1.36974946      -0.00491778       0.00288854      -0.00026350
Ti       2.57096906       2.35893821       2.58476247      -0.00113205      -0.00183594       0.00431976
Ti       3.36549986       5.10662347       2.58251419      -0.00029295      -0.00345413       0.00702185
Ti       0.81119151       0.38995378       3.83046667      -0.00220094      -0.00341148      -0.00372672
Ti       0.03471283       3.13680237       3.83169018      -0.00470626       0.00154000      -0.00076952
Ti       3.37024823       1.18294495       5.07681236      -0.00133711       0.00154858      -0.00903173
Ti       2.56283646       3.93127625       5.07476416       0.00006954       0.00200991      -0.00912360
Ti       0.01243327       4.70297134       6.31656670       0.00169927      -0.00142484      -0.00415065
Ti       0.83420970       1.95383501       6.32015334      -0.00334262      -0.00110369       0.00021141
Ti       3.37096069       2.73786025       7.56241120      -0.00522392      -0.00242606       0.00770923
Ti       2.56352145       5.48613057       7.56748281      -0.00664746      -0.00461013       0.01296840
Ti       0.82370759       3.53669326       8.81195443      -0.00173110      -0.00140833       0.00538709
Ti       0.00914429       0.79084757       8.81614922      -0.00282795      -0.00397488       0.00645302
Ti       2.55115151       1.56828211      10.05918546      -0.00389056      -0.00117136      -0.00176169
Ti       3.37406963       4.30839557      10.06486913      -0.00269464      -0.00345453       0.00553733
Ti       0.81881865       5.08943988      11.29869141       0.00174636      -0.00555977      -0.00380979
Ti       0.02384947       2.34123249      11.31659551       0.00454877      -0.00225934       0.00256382
Ti       3.34423693       0.38641535      12.54540314      -0.00265142      -0.00302534       0.00027484
Ti       2.56254182       3.13713005      12.56948109      -0.00665290      -0.00701682      -0.00106331
Ti       0.00412191       3.90183586      13.78103661       0.01130357      -0.00113156       0.00656260
Ti       0.81494451       1.15064562      13.80016572       0.00252003      -0.00925831       0.00402083
Ti       2.61748305       4.64760001      15.03063505       0.00566480      -0.00490212       0.01062720
Ti       3.36221262       1.89246210      14.98890870       0.00480355      -0.00584245       0.01189668
Ti       0.75625094       2.75146890      16.34177224       0.00220137       0.00147557      -0.00472469
Ti       0.07542420       5.49445153      16.47014019       0.00514470       0.00097715       0.00482280
Ti       3.35559712       1.95339562      17.74223273       0.00788865      -0.00101930      -0.00342590
Ti       2.53886562       4.71685685      17.79913787       0.00180343       0.01242042       0.00196963
Ti       0.07754990       3.91775849      18.97253954      -0.01094383      -0.00834630      -0.00868027
Ti       0.87720331       1.18198614      18.97889594       0.00111494       0.00902016      -0.01011259
Ti       3.42410485       0.39534131      20.18781335       0.00394573       0.00628271       0.00255494
Zn       2.61459232       3.13772881      20.19773353      -0.00089606       0.00099861      -0.00243478
Ti       0.89086032       5.10051431      21.41942532       0.00592774      -0.00498833      -0.00036805
Ti       0.05666420       2.36733901      21.42975777       0.00038761       0.01832915      -0.00133451
Ti       2.53478559       1.55797731      22.60820725      -0.00011160       0.00022832      -0.01003888
Ti       3.39742768       4.33173518      22.65882193      -0.00196957      -0.00278465      -0.00129314
Ti       0.01132237       0.80708543      23.87392515      -0.00228287      -0.00025375      -0.00102025
Ti       0.82212031       3.54199383      23.92749965      -0.00273580       0.00634264      -0.00188152
Ti       3.35661480       2.74400731      25.13860737       0.00974635      -0.00005720      -0.00280481
Ti       2.55824900       5.49459282      25.12365776       0.00979865       0.00866429      -0.00804010
Ti       0.81650863       1.95293973      26.38870944      -0.00365366       0.00103605      -0.00487166
Ti       5.08542171       4.71123314      26.37995290       0.00346514      -0.00209816      -0.01408490
Ti       2.54958188       3.93653246      27.62055976       0.00832644       0.00573492      -0.00101198
Ti       3.35379321       1.18453571      27.62627276       0.00215899       0.00058121       0.00407889
Ti       0.79786592       0.38249770      28.87356788      -0.00161610       0.01037177       0.00415851
Ti       0.02252471       3.13671583      28.87139313      -0.00103441      -0.00269226       0.01217980
Ti       2.55629247       2.36107221      30.11903480       0.00092980       0.00177392      -0.00208144
Ti       3.35825603       5.10455711      30.11412448      -0.00207471      -0.00264701      -0.00037554
Ti       0.80374831       4.35352713      31.33205028      -0.00485346      -0.01573351       0.00860916
Ti       0.02286206       1.60493571      31.33118406      -0.00600470       0.01088930      -0.00419079
Ti       3.31116989       3.53918792      32.71579998      -0.00503759       0.00701856      -0.00913300
