52
Lattice="5.088765 0.0 0.0 0.0 5.495746 0.0 0.0 0.0 32.722931" Properties=species:S:1:pos:R:3:forces:R:3 job_name=C1-Zn-Zn-29-d-2.59 GB_type=C1 element=Zn system=Zn-29-d-2.59 distance=2.59 energy=-395.95233538 stress_kbar_3x3="_JSON [[-39.44035762, 0.08228683, -0.16400017], [0.0822868, -29.53717025, -2.60182158], [-0.16400015, -2.60182163, -23.01033915]]" pbc="T T T"
Ti       2.61188878       0.79323196       0.01476551      -0.00078193       0.00041579      -0.00090429
Ti       0.01759629       1.62333995       1.38384915       0.00381683       0.00001109       0.00791322
Ti       0.79104021       4.36978059       1.37416711      -0.00681613       0.01123650       0.00987281
Ti       2.56542851       2.37690947       2.59765811      -0.00223629       0.00646034      -0.00255893
Ti       3.36514879       5.12443841       2.60508587      -0.00130719      -0.00344142       0.00177003
Ti       0.80898852       0.40960624       3.83973117       0.00589829      -0.00096011      -0.01799920
Ti       0.03699721       3.15853949       3.85050044       0.00232567       0.00906354      -0.01146135
Ti       3.36205203       1.21167411       5.08683341      -0.00713382       0.00919144      -0.00386095
Ti       2.56381072       3.96036810       5.09575998      -0.00358998      -0.00216984      -0.00993834
Ti       0.01288912       4.73955771       6.33333158       0.00223221       0.00189734       0.00824494
Ti       0.83306567       1.98641629       6.33679871       0.00564309       0.00135842       0.00877669
Ti       3.37295863       2.77248366       7.57317763       0.00460164      -0.00395575       0.00814842
Ti       2.56920808       0.02774368       7.58450133      -0.00355232       0.00481786       0.00994142
Ti       0.81804145       3.58164199       8.82506469       0.00036558       0.00247834       0.00129646
Ti       0.02208825       0.83838658       8.83553448      -0.00498550       0.00382305      -0.00356276
Ti       2.56626352       1.63839058      10.07592156       0.00648114      -0.00325730       0.00286691
Ti       3.38110906       4.37692850      10.08629300       0.00376983       0.00419918       0.00220166
Ti       0.84091836       5.15298060      11.31367302      -0.00578601      -0.00097371       0.00285776
Ti       0.03262042       2.40991796      11.33893710      -0.00530476      -0.00139134       0.00436305
Ti       3.35401853       0.45846978      12.56028434       0.00278975       0.00434403      -0.00526229
Ti       2.57947903       3.21359685      12.58092642       0.00445536       0.00309082      -0.00231454
Ti       0.05039415       4.01041932      13.82076083       0.00351409       0.00157249      -0.00705651
Ti       0.81880913       1.24920725      13.84244723      -0.00597006       0.00344556      -0.00979856
Ti       2.56486809       4.83304207      15.07069037       0.00500166       0.00012515      -0.00220784
Ti       3.42087110       2.07475931      15.01279640       0.00097506       0.00028889      -0.00729862
Ti       0.81523939       2.71927956      16.35236013      -0.00039119      -0.00032573      -0.00847429
Ti       0.07077616       0.02351794      16.42261827      -0.00153335      -0.00593351      -0.01087799
Ti       3.32917765       1.75190356      17.72015298       0.00495178       0.00120614      -0.00138528
Ti       2.61464537       4.51350247      17.75711399      -0.00506063       0.00088346      -0.01278537
Zn       0.05631993       3.84084264      18.88040176       0.00187114      -0.00372320       0.01798751
Ti       0.90170981       1.12488405      18.96844864      -0.00347205      -0.00141505       0.00122526
Ti       3.42835750       0.31058629      20.14448869      -0.00520912      -0.00331576       0.00867698
Ti       2.64551802       3.08451983      20.15217231       0.00186911       0.00277574       0.01746111
Ti       0.83037392       5.02114690      21.38387552       0.00190916      -0.01326154       0.01281145
Ti       5.08804557       2.26418758      21.37450671       0.00240427       0.00806432       0.01309760
Ti       2.54203647       1.52560629      22.59803430      -0.00227130      -0.00315854       0.00475994
Ti       3.37334231       4.27242482      22.68194358      -0.00504700      -0.00121807      -0.00455333
Ti       0.02622484       0.74945360      23.86844946       0.00455772      -0.00682281      -0.00703466
Ti       0.82358682       3.49293072      23.88374430       0.00162321       0.00526546      -0.01118077
Ti       3.34695541       2.69081483      25.13578920      -0.00270524      -0.00152137      -0.01199741
Ti       2.54185851       5.45146867      25.14329546      -0.00603496      -0.00060907      -0.01203576
Ti       0.80927947       1.92404984      26.38708072       0.00414069      -0.00447071      -0.00581172
Ti       5.07503465       4.67203735      26.36956885       0.00156296       0.00119238      -0.01000849
Ti       2.54733192       3.90664855      27.62252719      -0.00013263       0.00375946      -0.00037134
Ti       3.35104877       1.15391422      27.62497177       0.00101792      -0.00811720       0.00430510
Ti       0.78736557       0.36332445      28.85408463      -0.00003634       0.00321816       0.00874174
Ti       0.00970009       3.11598218      28.87199437      -0.00450772      -0.00795707       0.01275921
Ti       2.54329441       2.34071511      30.10617677       0.00391950      -0.00789400       0.00221319
Ti       3.33798122       5.08802412      30.11573508       0.00150788       0.00338318       0.00619582
Ti       0.81080444       4.33200407      31.32318292      -0.00354011      -0.00917704      -0.00308082
Ti       0.02246049       1.58238256      31.33032467      -0.00009622       0.00015191       0.00175936
Ti       3.29668179       3.54092216      32.68367427       0.00429631      -0.00264992       0.00357378
