52
Lattice="5.088765 0.0 0.0 0.0 5.495746 0.0 0.0 0.0 32.722931" Properties=species:S:1:pos:R:3:forces:R:3 job_name=C1-Zn-Zn-26-d-0.00 GB_type=C1 element=Zn system=Zn-26-d-0.00 distance=0.0 energy=-395.74393321 stress_kbar_3x3="_JSON [[-39.41572882, 2.04164277, 0.00222759], [2.04164276, -27.33919643, -0.0067556], [0.00222759, -0.00675562, -20.34998754]]" pbc="T T T"
Ti       2.61722018       0.79418656       0.00026951      -0.00162603       0.00118803      -0.00220532
Ti       0.03317916       1.59910790       1.37743674       0.00194599       0.00028131       0.00713886
Ti       0.82119839       4.34482778       1.38082327      -0.00310610       0.00015347       0.00241029
Ti       2.57520334       2.35737203       2.59662329      -0.00212688      -0.00038490       0.00858225
Ti       3.36582233       5.10540844       2.59307770      -0.00004380       0.00093233       0.00740065
Ti       0.81010906       0.39056192       3.84126142      -0.00174015      -0.00009994       0.00467977
Ti       0.03245067       3.13835340       3.84182372      -0.00016685       0.00042359       0.00296287
Ti       3.37297216       1.17910767       5.09042899      -0.00219254       0.00049004       0.00187949
Ti       2.56175617       3.92890416       5.07962162      -0.00168817       0.00283878       0.00129882
Ti       0.01740402       4.70003105       6.32965581      -0.00442132       0.00293750      -0.00255120
Ti       0.82959594       1.95218262       6.32676235      -0.00357022       0.00074632      -0.00222144
Ti       3.35738836       2.74643932       7.57794763       0.00296706      -0.00234112      -0.00293473
Ti       2.55445314       5.49454406       7.58108819       0.00291194      -0.00067504      -0.00230687
Ti       0.82742724       3.54061675       8.83434264      -0.00384590      -0.00088068       0.00113288
Ti       0.00154674       0.79659838       8.81267218       0.00124361      -0.00130836      -0.00184379
Ti       2.55495157       1.56941377      10.07009916      -0.00053645      -0.00304445      -0.00180931
Ti       3.37343418       4.30893898      10.06662695      -0.00005605       0.00501766      -0.00540564
Ti       0.78976480       5.11310178      11.30288526       0.00100266       0.00415889       0.00604250
Ti       0.02460101       2.34402682      11.32843950       0.00355260      -0.00480523       0.00313558
Ti       3.34458704       0.42228932      12.57705463      -0.00338742      -0.00239853       0.01345875
Ti       2.54442038       3.16587024      12.55873767      -0.00350919       0.00277376       0.01520664
Ti       0.00219456       3.86276408      13.78845776      -0.00003265      -0.00140214       0.01181966
Ti       0.84137944       1.17363743      13.79886784       0.00609133       0.00186023       0.00523075
Ti       2.68124630       4.62954159      15.00203390       0.00839835       0.00093733      -0.00767424
Ti       3.38524634       1.90380889      14.96776712      -0.00024611      -0.00580581      -0.00277192
Ti       0.73278279       2.84173765      16.36134509       0.00639242       0.00227344       0.00106405
Zn       0.13915487       0.02549997      16.36144442       0.00007915      -0.00474321       0.00062223
Ti       3.38523988       1.90413697      17.75507864      -0.00028544      -0.00775263       0.00544336
Ti       2.68124313       4.62956823      17.72082913       0.00852443       0.00309204       0.00937926
Ti       0.00227075       3.86298707      18.93448768      -0.00050580      -0.00190099      -0.01266412
Ti       0.84146358       1.17382591      18.92416372       0.00592211       0.00239542      -0.00609478
Ti       3.34460862       0.42237900      20.14616520      -0.00288378      -0.00058682      -0.01737039
Ti       2.54441849       3.16624608      20.16450530      -0.00301337       0.00047119      -0.01799619
Ti       0.78978079       5.11335125      21.42022464       0.00094760       0.00424778      -0.00761449
Ti       0.02466148       2.34431071      21.39458247       0.00265975      -0.00540340      -0.00460153
Ti       2.55504533       1.56961314      22.65271599      -0.00031087      -0.00195964       0.00257434
Ti       3.37349073       4.30930675      22.65633921       0.00000901       0.00392381       0.00591955
Ti       0.00167314       0.79675128      23.91023605       0.00104009      -0.00034948       0.00255404
Ti       0.82748423       3.54082993      23.88838321      -0.00376956      -0.00103285       0.00000779
Ti       3.35746397       2.74665072      25.14498752       0.00257072      -0.00177144       0.00182354
Ti       2.55441798       5.49480442      25.14185605       0.00294886      -0.00111911       0.00140578
Ti       0.82968445       1.95254181      26.39631580      -0.00342145       0.00060321       0.00071810
Ti       0.01744724       4.70031870      26.39327837      -0.00445943       0.00290994       0.00134946
Ti       2.56182121       3.92922275      27.64341966      -0.00115342       0.00271525      -0.00040030
Ti       3.37304644       1.17945447      27.63241680      -0.00216972       0.00005585      -0.00016587
Ti       0.81015410       0.39088111      28.88151531      -0.00230171      -0.00016877      -0.00121746
Ti       0.03242971       3.13865297      28.88103581      -0.00024554       0.00037609       0.00097163
Ti       2.57505911       2.35760638      30.12606210      -0.00159546      -0.00022512      -0.00601942
Ti       3.36589281       5.10572346      30.12971023       0.00000910       0.00091091      -0.00494048
Ti       0.82122667       4.34519425      31.34193543      -0.00324837       0.00025051      -0.00425077
Ti       0.03347999       1.59945331      31.34540912       0.00195198       0.00063116      -0.00888341
Ti       3.31318014       3.54196761       0.00002721       0.00049101       0.00056381      -0.00226924
