52
Lattice="5.088765 0.0 0.0 0.0 5.495746 0.0 0.0 0.0 32.722931" Properties=species:S:1:pos:R:3:forces:R:3 job_name=C1-Zr-Zr-36-d-6.31 GB_type=C1 element=Zr system=Zr-36-d-6.31 distance=6.31 energy=-402.7696315 stress_kbar_3x3="_JSON [[-28.88842018, 0.10082216, -0.13650752], [0.10082214, -19.25362148, -0.58690222], [-0.13650754, -0.58690222, -8.65371594]]" pbc="T T T"
Ti       2.61400560       0.80093900       0.03032781      -0.00144860       0.00030654       0.00402892
Ti       0.02591286       1.60548099       1.39722414      -0.00123210       0.00205205       0.00351444
Ti       0.81764052       4.35300077       1.40185319       0.00052953       0.00349955       0.00324386
Ti       2.56641001       2.35955531       2.60509733       0.00003960       0.00140722       0.00479427
Ti       3.36885249       5.10801754       2.60492353      -0.00186728       0.00178586       0.00461788
Ti       0.81332955       0.38916862       3.83997051      -0.00081486      -0.00023057       0.00351251
Ti       0.03208040       3.13642958       3.84079902      -0.00051484      -0.00075167       0.00321509
Ti       3.37379990       1.18575883       5.07903736      -0.00008598       0.00040469      -0.00214290
Ti       2.56235650       3.93389027       5.07729339      -0.00164607       0.00013458      -0.00233628
Ti       0.00789779       4.70581773       6.31430480      -0.00069832       0.00097830      -0.00105611
Ti       0.84077981       1.95835669       6.31353052      -0.00054640       0.00093577      -0.00105537
Ti       3.37654395       2.73912881       7.55184833      -0.00056631       0.00231208      -0.00006343
Ti       2.55847469       5.48684108       7.55300557      -0.00138890       0.00185460      -0.00010665
Ti       0.83196568       3.54083233       8.79532037      -0.00170410       0.00300588      -0.00038937
Ti       0.01468636       0.79323645       8.79284470      -0.00016305       0.00296387      -0.00049731
Ti       2.55317867       1.57576238      10.03183631      -0.00033222       0.00165852      -0.00109471
Ti       3.38470668       4.32362545      10.03165486      -0.00147588       0.00083630      -0.00116607
Ti       0.82905344       5.09681378      11.26493476       0.00038028       0.00127111      -0.00286043
Ti       0.01552052       2.34772191      11.26871547      -0.00002018       0.00087399      -0.00287382
Ti       3.35562709       0.39667008      12.50347928      -0.00192532       0.00171040      -0.00310343
Ti       2.57532088       3.14567420      12.49966497      -0.00059641       0.00129491      -0.00139894
Ti       0.02661065       3.92766987      13.74263082      -0.00189192       0.00377798      -0.00374071
Ti       0.82113690       1.18088041      13.74222803       0.00071876       0.00308269      -0.00214058
Ti       2.56530351       4.69367908      14.94880635       0.00006843       0.00553957      -0.00202091
Ti       3.36564206       1.94803531      14.93615807       0.00075323       0.00672095      -0.00389260
Ti       0.76066629       2.73531286      16.31253055       0.00014274       0.00136581      -0.00475187
Ti       0.06387145       5.48091248      16.31054924       0.00073893      -0.00157624      -0.00208914
Ti       3.34563210       1.90130737      17.66675705      -0.00140780      -0.00671834      -0.00195555
Ti       2.58820288       4.64465422      17.69109747       0.00236587      -0.00646633      -0.00000761
Ti       0.00104147       3.89436427      18.91354519       0.00237735      -0.00320563       0.00097261
Ti       0.81670920       1.16587574      18.89710337       0.00179252       0.00070418       0.00347012
Ti       3.35649705       0.43241986      20.10600849       0.00301757       0.00115854       0.00327503
Ti       2.58609650       3.13432080      20.08706186       0.00084625      -0.00465737       0.00571452
Ti       0.84273927       5.11446591      21.35203980       0.00023049      -0.00552035      -0.00525271
Ti       0.08710208       2.31648591      21.41881300       0.00424494      -0.00091197      -0.00185417
Ti       2.54230865       1.57652807      22.66451601      -0.00139269       0.00332480      -0.00649222
Zr       3.39006942       4.33091523      22.68570924      -0.00194046      -0.01241619      -0.00174163
Ti       0.10327254       0.81983180      23.93976968       0.00536448      -0.00159465       0.00073811
Ti       0.85406465       3.51984661      24.00231660       0.00255507      -0.00375768       0.00064434
Ti       3.37584621       2.69068766      25.23414046       0.00194463       0.00162970       0.00214639
Ti       2.55973887       5.48609472      25.27729147      -0.00178513      -0.00523270       0.00716306
Ti       0.82176059       1.96011947      26.47343868      -0.00000440      -0.00127540       0.00511826
Ti       5.07151201       4.72225307      26.43964243      -0.00051907      -0.00145935       0.00436048
Ti       2.57373492       3.93528616      27.68889385       0.00113145      -0.00100252      -0.00110161
Ti       3.36390583       1.18403650      27.72657388       0.00081048      -0.00218311      -0.00015416
Ti       0.80703963       0.37495972      28.93051769      -0.00093409       0.00071236      -0.00209126
Ti       0.03229757       3.13285216      28.94181307      -0.00047461       0.00103798       0.00053251
Ti       2.55369653       2.35795938      30.17812682      -0.00405901       0.00152895      -0.00271375
Ti       3.35529967       5.10437370      30.18187661       0.00182500      -0.00028609      -0.00140830
Ti       0.81186020       4.34566708      31.38420313      -0.00053839      -0.00111084      -0.00221058
Ti       0.02144970       1.59609458      31.37218784       0.00033135       0.00090099      -0.00231384
Ti       3.31368736       3.54978502       0.02926201      -0.00023455      -0.00041375       0.00701560
