52
Lattice="5.088765 0.0 0.0 0.0 5.495746 0.0 0.0 0.0 32.722931" Properties=species:S:1:pos:R:3:forces:R:3 job_name=C1-Zr-Zr-27-d-1.38 GB_type=C1 element=Zr system=Zr-27-d-1.38 distance=1.38 energy=-402.93593234 stress_kbar_3x3="_JSON [[-30.36815772, -0.15468133, 1.30951887], [-0.15468134, -18.80095563, -1.06240535], [1.30951887, -1.06240535, -6.93436302]]" pbc="T T T"
Ti       2.61534206       0.79975273       0.01814310      -0.00173774       0.00201381      -0.00019746
Ti       0.02070355       1.60242201       1.37518807      -0.00635570       0.00035833      -0.00211588
Ti       0.81220255       4.34925986       1.37431047      -0.00308863       0.00055937       0.00024988
Ti       2.56846265       2.35978558       2.57685964      -0.00031803       0.00114549      -0.00228518
Ti       3.36865164       5.10671116       2.58010218      -0.00261589       0.00155049      -0.00017438
Ti       0.81097364       0.38908524       3.80734051      -0.00225665       0.00033079       0.00360394
Ti       0.02842530       3.13607315       3.81793758      -0.00273089      -0.00039778       0.00639714
Ti       3.36527723       1.18325921       5.04937009      -0.00384491       0.00166722       0.00177953
Ti       2.55162068       3.93441210       5.04503492      -0.00347242      -0.00005468      -0.00094306
Ti       0.00533789       4.70753723       6.27739509      -0.00195288      -0.00011490       0.00083590
Ti       0.83635545       1.95409891       6.28542172      -0.00284812      -0.00083829       0.00137523
Ti       3.36540062       2.73999695       7.50558222      -0.00244479       0.00104890       0.00419043
Ti       2.55177452       5.48898783       7.53110240       0.00113903       0.00266102       0.00660426
Ti       0.80952350       3.53904235       8.75912050      -0.00135320       0.00387450      -0.00622316
Ti       5.07779135       0.80107042       8.76241797      -0.00288755       0.00688021      -0.00285754
Ti       2.54410626       1.58659908       9.98746169      -0.00162792       0.00467035      -0.00631322
Ti       3.38012359       4.30973431      10.00292875      -0.00129569       0.00045640       0.00206092
Ti       0.81922938       5.09621399      11.19335697      -0.00377480      -0.00029218       0.00042354
Ti       0.02239744       2.34943234      11.27058023       0.00165648      -0.00088541       0.00337352
Ti       3.31469743       0.41061476      12.45288797       0.00671528       0.00787559      -0.00257983
Ti       2.54494287       3.17532039      12.49136811      -0.00213243       0.00107200       0.00287438
Ti       0.02274322       3.95060839      13.67357311      -0.00679925      -0.00017801      -0.00126308
Ti       0.84070798       1.17758374      13.73795227      -0.00196103       0.00286408       0.00100168
Ti       2.71060734       4.69074578      15.02226032       0.00799931      -0.00684990       0.00016579
Ti       3.42329371       1.93755645      14.80155544       0.00253198       0.00520964      -0.00364806
Ti       0.76653283       2.82109366      16.13145483       0.00023550       0.00511831       0.00327542
Ti       0.19147125       0.02446920      16.47002082      -0.00280429       0.00152470       0.01103948
Zr       3.25660037       1.89302275      17.64198123       0.00162113       0.00521632       0.00882321
Ti       2.52052099       4.64051399      17.81778619       0.00731508       0.01418897       0.00448790
Ti       0.05933864       3.91454425      18.96665677       0.00192973      -0.01138336      -0.00250173
Ti       0.83663113       1.12620289      19.06347659       0.00330116       0.00924483      -0.00002985
Ti       3.38874550       0.34793884      20.27278042      -0.00575373       0.00219939      -0.00042361
Ti       2.59501080       3.12316982      20.30521029       0.00684794      -0.01085640       0.00036435
Ti       0.81996497       5.07410717      21.47480067       0.00425517      -0.00233834       0.00414222
Ti       0.00396073       2.34177538      21.51230971      -0.00089752      -0.00221784       0.00170703
Ti       2.55773019       1.55539104      22.72385214       0.00161306      -0.00186197      -0.00147338
Ti       3.38080048       4.31816533      22.75706935       0.00265211      -0.00695176       0.00130778
Ti       0.02975541       0.78091250      23.97626029      -0.00066365      -0.00403803      -0.00545201
Ti       0.84393812       3.52817543      23.96908124       0.00213378      -0.00791511      -0.00245196
Ti       3.37445018       2.73219123      25.20760888       0.00659970      -0.00271747      -0.00181300
Ti       2.54940151       5.48232354      25.22753534       0.00407866      -0.00648757       0.00372325
Ti       0.83392768       1.95968668      26.45815930      -0.00052377      -0.00094416       0.00377977
Ti       0.00019521       4.70259483      26.44116132       0.00174905      -0.00793024       0.00028420
Ti       2.56646173       3.92990774      27.68769891       0.00220985      -0.00462419      -0.00411592
Ti       3.37504201       1.18415118      27.68936368       0.00325214      -0.00225854      -0.00294029
Ti       0.81170071       0.38581887      28.91613352      -0.00153321       0.00211539      -0.00116231
Ti       0.02789933       3.13500724      28.92921383      -0.00215573       0.00071325       0.00094468
Ti       2.56132733       2.35940690      30.15433390      -0.00289381       0.00409452      -0.00455284
Ti       3.36140908       5.11022483      30.16120867       0.00577227      -0.00422110      -0.00464873
Ti       0.82186656       4.34937965      31.36089214      -0.00057143      -0.00327424      -0.01131024
Ti       0.03346437       1.59987220      31.36147939      -0.00125775       0.00202830      -0.00765613
Ti       3.31810019       3.54869973      32.71942524      -0.00105503      -0.00105073       0.00031742
