52
Lattice="5.088765 0.0 0.0 0.0 5.495746 0.0 0.0 0.0 32.722931" Properties=species:S:1:pos:R:3:forces:R:3 job_name=C1-Zr-Zr-33-d-5.07 GB_type=C1 element=Zr system=Zr-33-d-5.07 distance=5.07 energy=-402.7766581 stress_kbar_3x3="_JSON [[-28.65084329, 0.35904253, 0.53151158], [0.35904253, -18.67234002, -0.22537801], [0.53151162, -0.22537801, -7.39302908]]" pbc="T T T"
Ti       2.61369231       0.79669220       0.03696616      -0.00792947       0.00415594      -0.00374032
Ti       0.02762471       1.60563316       1.39973480      -0.00726281      -0.00329050      -0.00020368
Ti       0.81774278       4.35097045       1.39848416      -0.00478579      -0.00350172      -0.00736299
Ti       2.56814015       2.35916784       2.60457912      -0.00233200      -0.00093573      -0.00621575
Ti       3.37015525       5.10687208       2.60262924       0.00296513      -0.00164631       0.00149546
Ti       0.81447370       0.38706050       3.83747435       0.00200604       0.00578402      -0.00716639
Ti       0.03222095       3.13577548       3.83938986       0.00094614       0.00384772      -0.00128622
Ti       3.37451382       1.18385770       5.07397979      -0.00269370       0.00226806      -0.00054841
Ti       2.56166813       3.93330486       5.07334504      -0.00433963       0.00085516       0.00117049
Ti       0.00765078       4.70547589       6.30680732       0.00084377      -0.00018393      -0.00362754
Ti       0.84026591       1.95563224       6.30708816       0.00154173      -0.00036118       0.00493690
Ti       3.37658792       2.73816892       7.54233273       0.00068531      -0.00094013       0.00099067
Ti       2.55882588       5.48724529       7.54607653      -0.00135714      -0.00199357       0.00921052
Ti       0.83072632       3.53887305       8.78069610      -0.00678366      -0.00242121       0.01048260
Ti       0.00908072       0.79363139       8.78477177      -0.00569902      -0.00112163       0.00654197
Ti       2.54850247       1.57360126      10.01836746      -0.00156443       0.00195161       0.00279122
Ti       3.38276419       4.31448250      10.02281580      -0.00223431      -0.00201396       0.00394362
Ti       0.82896113       5.09073377      11.24701114      -0.00647859      -0.00067065      -0.00191761
Ti       0.01796301       2.34484891      11.26200280       0.00338923      -0.00223736       0.00454699
Ti       3.34947026       0.39134312      12.48611236      -0.00441052      -0.00075471       0.00180538
Ti       2.56331030       3.14287199      12.50229215       0.00455639       0.00198874       0.00012136
Ti       0.01455417       3.91360705      13.71761637      -0.00249389       0.00115987      -0.00385465
Ti       0.81682729       1.16002720      13.73277154      -0.00320117       0.00366999       0.00102249
Ti       2.60103475       4.67770531      14.95696064       0.00383980      -0.00465171       0.00605152
Ti       3.37380574       1.92397483      14.91616529      -0.00125994       0.00060649      -0.00456723
Ti       0.76179140       2.74123946      16.24762277       0.00435292       0.00154834      -0.00380957
Ti       0.07674027       5.47765345      16.35668726       0.00950067       0.00871721       0.01476985
Ti       3.31475956       1.91599775      17.65677729      -0.01226233      -0.00278688       0.00409493
Ti       2.53942525       4.64979194      17.71543644       0.00462130       0.00709902       0.00910518
Ti       0.02811615       3.92017078      18.82570169       0.00568731      -0.00252095      -0.00639797
Ti       0.83668066       1.23051437      18.88989278      -0.00622394       0.00128298       0.00449549
Ti       3.38335258       0.42703465      20.08938452       0.00375527      -0.00479407      -0.00606836
Ti       2.67775966       3.12335142      20.17193802       0.00950823      -0.00497356       0.00333368
Zr       0.82865790       5.09108449      21.42162737       0.00298903       0.00424514      -0.00501618
Ti       0.00810066       2.34381897      21.45108253       0.00098147      -0.01052637       0.00120767
Ti       2.63667545       1.59159146      22.68581259      -0.00197890       0.00599090      -0.00645930
Ti       3.39892886       4.29780230      22.76871263      -0.00126690       0.00346559       0.00233658
Ti       0.02547482       0.79156976      24.02920629       0.00706345       0.00631370       0.00776142
Ti       0.84202396       3.49695624      23.99074073       0.00000137      -0.00321661       0.00391170
Ti       3.35337133       2.74137740      25.22139360       0.00379416      -0.00534218      -0.00102297
Ti       2.53409575       0.00983259      25.20771755       0.00389491      -0.00091948      -0.00593923
Ti       0.82528269       1.96109692      26.49317108       0.00028445      -0.00398293      -0.00022088
Ti       0.01579399       4.70915464      26.44560820      -0.00133441      -0.00423849      -0.00068713
Ti       2.56754318       3.93303287      27.70445434      -0.00183712       0.00149923       0.00068016
Ti       3.36785704       1.17657566      27.69014601       0.00233032      -0.00016396       0.00355147
Ti       0.79731347       0.38538199      28.93815444       0.00750607       0.00051686       0.00367194
Ti       0.01412890       3.13792218      28.94726388       0.00011955      -0.00227461      -0.00621939
Ti       2.55676391       2.36287500      30.16088884      -0.00177216      -0.00447179      -0.00345985
Ti       3.35675669       5.11270509      30.18240578      -0.00069285       0.00365786      -0.00232030
Ti       0.81453863       4.35150046      31.38016235      -0.00039161       0.00521318      -0.00919220
Ti       0.03397754       1.60469372      31.38328802       0.00047301       0.00324611      -0.00827325
Ti       3.31170116       3.54836831       0.02152732       0.00494925      -0.00214751      -0.00845392
