52
Lattice="5.088765 0.0 0.0 0.0 5.495746 0.0 0.0 0.0 32.722931" Properties=species:S:1:pos:R:3:forces:R:3 job_name=C1-Zr-Zr-30-d-2.59 GB_type=C1 element=Zr system=Zr-30-d-2.59 distance=2.59 energy=-403.86368022 stress_kbar_3x3="_JSON [[-32.8300217, 0.7445317, -0.77192388], [0.74453172, -10.00688535, 3.6801909], [-0.77192389, 3.68019088, -22.06359828]]" pbc="T T T"
Ti       2.51691080       0.26640510      32.66389145      -0.00893504      -0.00745079      -0.00698948
Ti       0.40845152       1.64571890       1.26885632       0.00045275      -0.01675434      -0.00456844
Ti       0.43410645       4.39408811       1.27003104       0.00035466       0.00374411      -0.00398008
Ti       2.52801251       2.94239492       2.59059012      -0.00324201       0.00208204       0.00114484
Ti       3.40911858       0.19376934       2.58775355       0.00190923       0.00000042       0.00442479
Ti       0.88070931       0.30077529       3.67147556      -0.00194899      -0.00459729       0.00099378
Ti       5.06318461       3.04925232       3.67284164       0.00434423      -0.00000351       0.00211744
Ti       3.09517318       1.54929426       4.99326034      -0.00390570      -0.00111052       0.00470514
Ti       2.85040195       4.29808150       4.99366426       0.00142389       0.00105480       0.00072521
Ti       0.03629502       5.37460090       6.31080510       0.00000300       0.00602560       0.00065957
Ti       0.82704492       2.62738473       6.31200756       0.00075529       0.00344429      -0.00154293
Ti       3.43888660       3.21814636       7.50952313      -0.00090219       0.00592797      -0.00091165
Ti       2.51593670       0.47021786       7.51127625       0.00255464       0.00565783      -0.00064151
Ti       0.79557048       4.02938279       8.77017144       0.00091644       0.00433450       0.00194063
Ti       0.07004251       1.28082188       8.77095144      -0.00079786       0.00409281       0.00056161
Ti       2.61541970       2.10418849      10.01922064      -0.00057292       0.00440019      -0.00026778
Ti       3.34564713       4.85414039      10.02343689      -0.00124816       0.00284997       0.00094582
Ti       0.89867533       0.16884231      11.27871045       0.00153187       0.00254688      -0.00206517
Ti       5.06307866       2.91112027      11.27866174       0.00096544       0.00317036       0.00131638
Ti       3.37762317       0.76008649      12.49869422      -0.00262569       0.00296206      -0.00201518
Ti       2.58818759       3.50754772      12.49077961      -0.00083484       0.00723853      -0.00565568
Ti       0.32332227       4.59534571      13.77947897       0.00143676       0.00371426      -0.00370886
Ti       0.55582702       1.86418620      13.77894408       0.00025586       0.00203526       0.00204823
Ti       2.49393911       0.43398652      15.15327874       0.00099423       0.00552335      -0.00067488
Ti       3.44063247       3.18681312      15.14320786      -0.00411088      -0.00144013       0.00425896
Ti       0.90149635       3.19746523      16.21187876      -0.00078970       0.00225529       0.00241750
Ti       5.02802302       0.42963085      16.13074703      -0.00153901       0.00246966      -0.00201655
Ti       3.11678184       1.85220964      17.53106843       0.00193967       0.01035322      -0.00262460
Ti       2.92404023       4.57211531      17.57709675       0.00286996      -0.00608721       0.00429167
Ti       0.03780151       3.45258003      18.93145736      -0.00314987       0.00817015       0.00340519
Zr       0.78381071       0.68142828      18.87871106      -0.01199343      -0.00225120       0.00640002
Ti       3.38958258       5.46390131      20.25864120       0.00922961      -0.00102684       0.00595585
Ti       2.58069797       2.76728536      20.17492090       0.00082672       0.00893407       0.00499043
Ti       0.81070241       4.66569849      21.50758804      -0.00305282       0.00173363      -0.00163244
Ti       0.02995410       1.95703147      21.50044736       0.00201433       0.00255444       0.00339989
Ti       2.55973000       1.15014990      22.71836021       0.00058412       0.00214606      -0.00287527
Ti       3.33446812       3.87686056      22.72896178      -0.00099782      -0.00048841      -0.00541704
Ti       5.08586640       0.36324380      23.96199146       0.00015533       0.00138484      -0.00248497
Ti       0.81896252       3.10673715      23.99100442       0.00018425      -0.00156662      -0.00256105
Ti       3.33810294       2.33388905      25.21700420       0.00197976      -0.00157105      -0.00363419
Ti       2.57152884       5.08843654      25.21335310       0.00109156      -0.00171377      -0.00470734
Ti       0.77691656       1.50515772      26.47490841      -0.00190057      -0.00478186      -0.00436489
Ti       0.03087624       4.25506325      26.47546559       0.00224263      -0.00409323      -0.00134324
Ti       2.49029823       3.42609490      27.72323459       0.00149134      -0.00520080       0.00471303
Ti       3.41198089       0.67839156      27.73325981      -0.00459963      -0.00643890       0.00584733
Ti       0.79684580       0.07130308      28.94165646       0.00361927      -0.00472906       0.00597520
Ti       0.02407336       2.82024687      28.94056221       0.00145990      -0.00525844       0.00562090
Ti       2.86365914       1.66052750      30.26023984       0.00289137      -0.01873763      -0.00516103
Ti       3.04909358       4.41196042      30.25721681       0.00026901       0.00172600       0.00127851
Ti       0.87174261       3.08865890      31.58856536      -0.00825045      -0.00425459      -0.00232685
Ti       5.04688330       0.34112362      31.58756421       0.00659395      -0.00725907       0.00119862
Ti       3.40588231       3.01363061      32.66171921       0.00805651      -0.00571735      -0.00716541
