52
Lattice="5.088765 0.0 0.0 0.0 5.495746 0.0 0.0 0.0 32.722931" Properties=species:S:1:pos:R:3:forces:R:3 job_name=C1-Zr-Zr-35-d-6.31 GB_type=C1 element=Zr system=Zr-35-d-6.31 distance=6.31 energy=-402.7688636 stress_kbar_3x3="_JSON [[-28.98314568, -0.10070865, 0.16570957], [-0.10070864, -19.20891012, -0.54948244], [0.16570959, -0.54948243, -8.63210668]]" pbc="T T T"
Ti       2.62145773       0.80132131       0.02839035       0.00413255      -0.00107115       0.00295687
Ti       0.03085857       1.60559840       1.40354097      -0.00232885      -0.00349191      -0.01290648
Ti       0.82104232       4.35300273       1.39871862      -0.00105216       0.00068409      -0.00842270
Ti       2.56631650       2.36061838       2.60634515       0.00159348      -0.00353923      -0.00420397
Ti       3.36783665       5.10715327       2.60574296       0.00831570       0.00009507      -0.00102963
Ti       0.81471208       0.38566500       3.84328791       0.00329503       0.00707388      -0.00524111
Ti       0.03397218       3.13496141       3.84098108      -0.00247735       0.00472961      -0.00049008
Ti       3.37284035       1.18391398       5.07695003       0.00382869       0.00461384       0.00177232
Ti       2.56435467       3.93185149       5.07988033      -0.00743066       0.00267546      -0.00197081
Ti       0.00738211       4.70528662       6.31364796      -0.00036525       0.00221981      -0.00031835
Ti       0.83819512       1.95683005       6.31456877       0.00388933       0.00233533       0.00010289
Ti       3.37827005       2.73833805       7.55214575      -0.00002303       0.00069652       0.00287538
Ti       2.56076238       5.48654134       7.54976793      -0.00197757       0.00131973       0.00781054
Ti       0.83269637       3.54081411       8.79045773      -0.00056695      -0.00138520       0.00622100
Ti       0.01571126       0.79236134       8.79470989      -0.00192742      -0.00036711       0.00140242
Ti       2.55102246       1.57488343      10.02956833       0.00232806       0.00179116       0.00868374
Ti       3.38151181       4.32276135      10.03164551       0.00407191      -0.00193079       0.00165398
Ti       0.83124415       5.09476389      11.26812300       0.00241731      -0.00006571      -0.00489920
Ti       0.01945050       2.34795945      11.26438464      -0.00626083       0.00331642      -0.00129858
Ti       3.35977001       0.39674468      12.49913664       0.00404020      -0.00099389      -0.00876227
Ti       2.57867033       3.14280614      12.50592299       0.00694184       0.00430574      -0.01511160
Ti       0.02398074       3.92523116      13.73981034       0.00153659       0.00684035       0.00074195
Ti       0.82125410       1.17583556      13.74172437       0.00152510       0.00797368       0.00079669
Ti       2.57347419       4.69089499      14.93714659       0.00249915       0.00739317      -0.00657211
Ti       3.37261972       1.94036145      14.94671942      -0.00259854       0.00655221       0.00746045
Ti       0.78667671       2.73259839      16.30565510      -0.00505895       0.00009053       0.00260929
Ti       0.09005349       5.48452659      16.31614155       0.00036745      -0.00628959       0.00076333
Ti       3.34903432       1.89870697      17.69060104      -0.00015893       0.00118444      -0.00500679
Ti       2.59281088       4.65142531      17.66828954      -0.00112214      -0.00318199      -0.00924704
Ti       0.03548125       3.91487088      18.89594061      -0.00795972      -0.00312681       0.00001835
Ti       0.85190426       1.14689240      18.91397617      -0.00826483       0.00473767       0.00634645
Ti       3.35562607       0.39091433      20.08562771      -0.00525293      -0.00320729       0.00253729
Ti       2.58259378       3.18703281      20.10743980      -0.00367559      -0.01592635       0.00929081
Ti       0.75810689       5.06728563      21.41798281       0.00470936       0.00210831       0.00320072
Ti       0.00657447       2.37152500      21.35155582       0.00270403      -0.00974344       0.00023999
Zr       2.54809684       1.58089855      22.68480281      -0.00075197      -0.00259406      -0.00297903
Ti       3.39378118       4.32537090      22.66697851       0.00232977      -0.01007766      -0.00485734
Ti       5.08284198       0.77203666      24.00507143       0.00209082       0.00221065      -0.01006099
Ti       0.74471286       3.56800071      23.93907888       0.00283329      -0.00424627      -0.00253737
Ti       3.37714555       2.73907924      25.27754324      -0.00305767       0.00028190      -0.00259300
Ti       2.55960110       5.43931268      25.23532049       0.00145650       0.00027956      -0.00309181
Ti       0.86601229       1.97651043      26.44078054      -0.00048347       0.00043739       0.00113836
Ti       0.02671580       4.70923952      26.47254200      -0.00278127       0.00025336       0.00541857
Ti       2.57464529       3.93477514      27.72496262      -0.00308061      -0.00249341       0.01137524
Ti       3.36337768       1.19066584      27.68858450       0.00522139      -0.00884032       0.00288180
Ti       0.81507176       0.38687084      28.94330505       0.00237634      -0.00895442      -0.00669021
Ti       0.04372066       3.12399531      28.93005690      -0.00720221       0.00026041       0.00708368
Ti       2.58189783       2.35570592      30.18084595       0.00811384       0.00418497       0.00949079
Ti       3.38421850       5.10550161      30.17876190       0.00508431       0.00240937       0.00601801
Ti       0.82825858       4.34365655      31.37252247      -0.00723031       0.00634663       0.00093180
Ti       0.03900825       1.59869201      31.38352392      -0.01162401      -0.00018139       0.01034120
Ti       3.31956452       3.54780700       0.03206638       0.00701120       0.00230670      -0.00387347
