52
Lattice="5.088765 0.0 0.0 0.0 5.495746 0.0 0.0 0.0 32.722931" Properties=species:S:1:pos:R:3:forces:R:3 job_name=C1-Zr-Zr-28-d-1.38 GB_type=C1 element=Zr system=Zr-28-d-1.38 distance=1.38 energy=-402.93500199 stress_kbar_3x3="_JSON [[-30.58633614, 0.1449948, -1.25862123], [0.1449948, -18.95513426, -1.05154763], [-1.25862124, -1.05154763, -7.15739955]]" pbc="T T T"
Ti       2.61803673       0.79967801      32.72066457       0.00208717       0.00066460      -0.00142459
Ti       0.03516655       1.60142681       1.37561023       0.00281197       0.00069476       0.00078378
Ti       0.82794081       4.35000473       1.37608532       0.00071726       0.00009950       0.00043182
Ti       2.56768163       2.35881952       2.58270899       0.00260804       0.00001952      -0.00008932
Ti       3.36746333       5.10728288       2.57880505       0.00368458       0.00054056       0.00080393
Ti       0.81969605       0.38799400       3.82174951       0.00099850       0.00263149       0.00029300
Ti       0.03663387       3.13711765       3.81080923       0.00235572      -0.00000966      -0.00002020
Ti       3.38495991       1.18577731       5.04772653       0.00253709       0.00122263       0.00172984
Ti       2.57148598       3.93090155       5.05336824       0.00090383       0.00087112      -0.00041592
Ti       0.01180693       4.70216338       6.28919506       0.00104243       0.00072573      -0.00051946
Ti       0.84219121       1.95938579       6.28189419       0.00173197       0.00113868      -0.00218519
Ti       3.38537124       2.74132215       7.53379060      -0.00108554       0.00222813       0.00258601
Ti       2.57141473       5.48790572       7.50948681       0.00073166       0.00088737       0.00148856
Ti       0.85692225       3.54858700       8.76424788       0.00323965       0.00279122       0.00426590
Ti       0.03781117       0.79058823       8.76218542       0.00009170       0.00343657       0.00054047
Ti       2.55720631       1.56296721      10.00459298      -0.00045504       0.00112776       0.00418256
Ti       3.39070954       4.33444330       9.99101039       0.00473429       0.00068067      -0.00053017
Ti       0.82565762       5.09822492      11.27208055       0.00118403       0.00160469       0.00152199
Ti       0.02835036       2.34865483      11.19977603       0.00162645      -0.00022268      -0.00376856
Ti       3.38950890       0.42423709      12.49241276       0.00356364       0.00454003       0.00167197
Ti       2.61915112       3.15686614      12.45606874       0.00172810       0.00278488      -0.00069583
Ti       0.01157378       3.92692832      13.73830433      -0.00271702      -0.00036152      -0.00288147
Ti       0.82472339       1.20135150      13.68055760       0.00395163       0.00106390      -0.00749411
Ti       2.51849297       4.68492230      14.80891216      -0.00387902       0.00128959      -0.00904636
Ti       3.23710451       1.94136252      15.01733979      -0.00748627       0.00266854       0.00151055
Ti       0.66314929       2.76885030      16.46638355      -0.00254300       0.00456072       0.00339409
Ti       0.08196113       0.06701448      16.14006706      -0.00264687       0.00353141      -0.00664422
Ti       3.41225316       1.89670244      17.81421648       0.00087022      -0.00099924       0.00335274
Zr       2.67709603       4.64122020      17.64770633      -0.00138789       0.00157424      -0.00225330
Ti       0.01114614       3.87692874      19.05836017      -0.00289340       0.00009639       0.00244764
Ti       0.78826775       1.16873532      18.96645397       0.00181975      -0.00515496      -0.00010925
Ti       3.34165354       0.37590178      20.30051783      -0.00238493      -0.00428752       0.00184951
Ti       2.55165162       3.09813919      20.27042729      -0.00532349      -0.00233566      -0.00058396
Ti       0.84252243       5.09090823      21.50722924       0.00137785      -0.00205073       0.00573256
Ti       0.02730823       2.32730629      21.47384202      -0.00025941      -0.00161699       0.00263937
Ti       2.55567307       1.57018496      22.75148422      -0.00190364      -0.00149699       0.00465016
Ti       3.37920815       4.30494226      22.72184400      -0.00023524      -0.00350919       0.00195347
Ti       0.00600313       0.78132337      23.96558202      -0.00288277      -0.00413318      -0.00064785
Ti       0.81986676       3.53001558      23.97087664      -0.00198068      -0.00316025       0.00106096
Ti       3.38559735       2.73448456      25.22205145       0.00004840      -0.00281508       0.00210342
Ti       2.56238681       5.48076453      25.20501175      -0.00307131      -0.00288322      -0.00099945
Ti       0.84667419       1.95438184      26.43911931       0.00058679      -0.00264670      -0.00204690
Ti       0.01458916       4.70713780      26.45441328      -0.00264415      -0.00251685      -0.00147202
Ti       2.56275324       3.93203396      27.68524335      -0.00222531      -0.00180939      -0.00121332
Ti       3.37131790       1.18224671      27.68359737      -0.00030546      -0.00181182      -0.00139214
Ti       0.81988478       0.38741297      28.92454677       0.00080128      -0.00047919       0.00014756
Ti       0.03721628       3.13427462      28.91367033      -0.00260656      -0.00052234      -0.00219728
Ti       2.57443889       2.36088530      30.15713301       0.00023811       0.00122160       0.00044027
Ti       3.37506130       5.10732883      30.15191552       0.00105102       0.00032445      -0.00173231
Ti       0.81550790       4.34790640      31.35925838       0.00010250       0.00044147      -0.00045348
Ti       0.02752655       1.60103403      31.35773100      -0.00119565       0.00046042       0.00070964
Ti       3.32039852       3.54767331       0.01814070       0.00288704      -0.00109945      -0.00147515
