52
Lattice="5.088765 0.0 0.0 0.0 5.495746 0.0 0.0 0.0 32.722931" Properties=species:S:1:pos:R:3:forces:R:3 job_name=C1-Zn-Zn-36-d-6.31 GB_type=C1 element=Zn system=Zn-36-d-6.31 distance=6.31 energy=-395.76943521 stress_kbar_3x3="_JSON [[-40.10328674, -0.02755814, -0.21473499], [-0.02755813, -30.21205761, 0.14592491], [-0.21473497, 0.1459249, -19.80424316]]" pbc="T T T"
Ti       2.63498840       0.79707297      32.69998159       0.00096925       0.00139010       0.00068839
Ti       0.03791257       1.60038506       1.36311218      -0.00069591       0.00064447       0.00293066
Ti       0.82785118       4.35091979       1.36465818       0.00090137      -0.00130858       0.00227451
Ti       2.57219426       2.35675659       2.57948135       0.00011274      -0.00029385       0.00216861
Ti       3.36898758       5.10507569       2.57649168       0.00165195      -0.00077558       0.00218342
Ti       0.81261698       0.38758913       3.82667254       0.00216187       0.00240297      -0.00031615
Ti       0.03731906       3.13518432       3.82298523       0.00112852       0.00164223       0.00029067
Ti       3.37313673       1.18355638       5.07006840       0.00222630       0.00058913       0.00182052
Ti       2.56659837       3.93077530       5.06740994       0.00163430       0.00046490       0.00103392
Ti       0.01371633       4.70247560       6.31247785       0.00142949       0.00064755       0.00143578
Ti       0.83660736       1.95537795       6.31229572       0.00208986       0.00005104       0.00128657
Ti       3.37380458       2.73799778       7.55836049       0.00174944      -0.00143113       0.00198459
Ti       2.56514938       5.48550351       7.55873141       0.00169164       0.00044805       0.00213089
Ti       0.83116049       3.53988609       8.80856751       0.00262898      -0.00158105       0.00236393
Ti       0.02102113       0.79203219       8.80871493       0.00137869      -0.00128052       0.00077413
Ti       2.56062984       1.57217410      10.05529866       0.00182115      -0.00026252      -0.00161619
Ti       3.38342027       4.32002452      10.05597487       0.00184070       0.00226311      -0.00208724
Ti       0.83099627       5.09411030      11.30001927       0.00203585       0.00252935      -0.00081769
Ti       0.02805308       2.34693981      11.29959299       0.00130366       0.00004583      -0.00324594
Ti       3.36409670       0.39391147      12.54440566       0.00049257      -0.00364362       0.00077145
Ti       2.59054999       3.14055674      12.54355027       0.00007843       0.00126977      -0.00032452
Ti       0.03894035       3.92141319      13.78879580       0.00005049       0.00181474       0.00096863
Ti       0.82967589       1.17457748      13.78960188       0.00082404      -0.00239521      -0.00030295
Ti       2.58490172       4.67913573      15.00001072      -0.00121781      -0.00245229      -0.00043200
Ti       3.37080796       1.93011484      15.00781144      -0.00182072       0.00035374      -0.00402728
Ti       0.78826579       2.72775784      16.38680865      -0.00344773       0.00122657      -0.00246445
Ti       0.10642507       5.47862718      16.36656152      -0.00215888      -0.00351744      -0.00252449
Ti       3.36123089       1.88572118      17.78379333       0.00284804      -0.01205259      -0.00280039
Ti       2.59973916       4.63934476      17.76350326       0.00187429       0.00595634      -0.01235575
Ti       0.03381401       3.91016313      18.94718500      -0.00423733       0.00108111       0.00064805
Ti       0.83590427       1.15024008      18.99919109      -0.00428162      -0.00728294      -0.00293039
Ti       3.37222269       0.39371826      20.25790472       0.00319836       0.01006633       0.00202773
Ti       2.56705725       3.14301547      20.20578025       0.00535978      -0.00737742       0.00463503
Ti       0.77078764       5.08372746      21.46055022      -0.00489938       0.00702143      -0.00252298
Ti       5.04190137       2.36766969      21.43438591      -0.00837822      -0.01270436      -0.00567979
Ti       2.51326148       1.57466819      22.67839301       0.00203471      -0.00093532      -0.00592532
Zn       3.31932984       4.31545484      22.68489746       0.00145514      -0.00079773      -0.00218956
Ti       5.03243381       0.77493236      23.92201922      -0.00621302       0.00932017       0.00316131
Ti       0.77683871       3.54627909      23.90204635      -0.00449199      -0.01092751      -0.00101661
Ti       3.38987554       2.73992927      25.10813672       0.00306033      -0.00502580       0.00484597
Ti       2.54094408       0.00293520      25.14811660       0.00179214       0.00500561       0.00336886
Ti       0.84122801       1.97560537      26.36624726      -0.00198177       0.00733295       0.00491112
Ti       0.02494115       4.71407341      26.41393317      -0.00109163      -0.00289007       0.00550532
Ti       2.58114900       3.94080135      27.63146279       0.00063935      -0.00212369       0.00205121
Ti       3.37376492       1.19635528      27.60833813       0.00082581       0.00529298       0.00136486
Ti       0.82936422       0.40478694      28.86583231      -0.00200025      -0.00238781      -0.00283414
Ti       0.05379585       3.14202414      28.87661570      -0.00245666       0.00254533      -0.00183854
Ti       2.58939728       2.36743742      30.11468717      -0.00059763       0.00359295       0.00009509
Ti       3.38329405       5.12283896      30.10582583      -0.00124751      -0.00076463       0.00041310
Ti       0.82625340       4.35849450      31.32751439      -0.00033898       0.00218195       0.00120720
Ti       0.04784988       1.60699454      31.32685167      -0.00027404       0.00368991      -0.00008468
Ti       3.32949831       3.54750836      32.71748471      -0.00145816       0.00334104      -0.00100446
