100
Lattice="4.4265 -2.555641 0.0 3.767997 6.526363 -0.031456 0.0 0.0 45.781652" Properties=species:S:1:pos:R:3:forces:R:3 job_name=CSL13-Zn-Zn-51-d-0.00 GB_type=CSL13 element=Zn system=Zn-51-d-0.00 distance=0.0 energy=-767.73237103 stress_kbar_3x3="_JSON [[-35.77213898, -0.81517284, 1.16355278], [-0.8151729, -38.27600322, 1.46220809], [1.1635528, 1.46220799, -17.46723526]]" pbc="T T T"
Ti       2.45319104      -0.93424373       0.01898039      -0.00308838      -0.00342237       0.00183140
Ti       5.74410485       1.51675796       0.00308831      -0.00324122      -0.00334220       0.00222719
Ti       4.96632815      -0.84150855       1.38686472      -0.00120372      -0.00317119       0.00069792
Ti       4.56757586       3.73940228       1.37120035      -0.00127425      -0.00125489       0.00031192
Ti       7.07865091       3.82608751       2.62630784      -0.00047842      -0.00183107      -0.00022527
Ti       3.78542843       1.37620779       2.64242809      -0.00050896      -0.00321023      -0.00184112
Ti       1.64010066      -0.47874436       2.88049411       0.00070572      -0.00007888       0.00043046
Ti       2.11840749       3.59642758       2.86494148       0.00020496      -0.00243530      -0.00067529
Ti       4.71176671       3.61565627       4.17099588       0.00117467      -0.00296904       0.00084828
Ti       4.78713134      -0.77840973       4.18668337      -0.00221934      -0.00230889       0.00205594
Ti       3.42091298       5.83318368       5.24367085      -0.00035128      -0.00188080      -0.00286140
Ti       2.92722670       1.76793098       5.25959663      -0.00275655      -0.00236352      -0.00321903
Ti       2.37918022      -0.98653364       5.76495702      -0.00258706      -0.00019492      -0.00178054
Ti       5.73617249       1.42613539       5.74927901       0.00027074      -0.00265474      -0.00218268
Ti       4.24549201       3.73335353       6.95936969      -0.00352000       0.00166575      -0.00143276
Ti       5.12410672      -1.12462404       6.97534298       0.00309084      -0.00111556      -0.00163476
Ti       6.90159283       3.55257016       7.83771812      -0.00132722      -0.00139287      -0.00582122
Ti       3.63853110       1.08486402       7.85372820      -0.00231124      -0.00130829      -0.00638261
Ti       6.34595071       0.85900679       8.62232597      -0.00358033       0.00040459      -0.00168908
Ti       1.58378825      -0.74408631       8.63773542       0.00012974      -0.00175792      -0.00026297
Ti       4.77981650       3.13839587       9.67921058       0.00142765      -0.00237357      -0.00322894
Ti       4.34188771      -0.95910924       9.69460281      -0.00389501       0.00033113      -0.00371902
Ti       3.14240670       5.37677025      10.46767857       0.00032464      -0.00223053      -0.00104708
Ti       2.67044871       1.29857345      10.48329954      -0.00116039      -0.00012382      -0.00245145
Ti       5.87477663       5.16815183      11.46773259      -0.00232420      -0.00012213       0.00381534
Ti       5.55074210       1.00205018      11.48204651      -0.00096275      -0.00139324       0.00389405
Ti       0.56749808       0.87676487      12.34634983      -0.00324183       0.00063302      -0.00087744
Ti       3.83001870       3.34706903      12.33114627      -0.00302979      -0.00181252      -0.00081403
Ti       3.25469764       0.65146955      13.18052719      -0.00234655       0.00345481      -0.00184343
Ti       6.71247679       3.00158457      13.16540887       0.00279892      -0.00122130       0.00062240
Ti       5.07558752       5.36539327      14.33073831      -0.00114315       0.00355330      -0.00034235
Ti       6.11719475       0.41186448      14.35047556       0.00128633       0.00208294      -0.00044795
Ti       4.52150011       2.62764977      14.92487471       0.00078012       0.00046515      -0.00474977
Ti       4.02082102      -1.43478350      14.93784092      -0.00131670      -0.00157740      -0.00415681
Ti       7.10541770       2.56619590      15.93392680      -0.00287113       0.00283212       0.00066860
Ti       2.67872337       0.77937169      15.94585616       0.00267890       0.00018184      -0.00357433
Ti       5.78774995       4.83727920      17.21888737      -0.00180744       0.00106971      -0.00158056
Ti       5.31034556       0.75021698      17.25018730       0.00206378       0.00362469       0.00001886
Ti       3.63731254       2.99460652      17.52870528       0.00529553       0.00451126      -0.00090914
Ti       0.35033007       0.51560952      17.52782362      -0.00346886       0.00141981      -0.00365956
Ti       2.86151626       0.61801927      18.74756377      -0.00201175       0.00344487       0.00080774
Ti       6.84218716       2.63746979      18.75273081       0.00037171       0.00188677       0.00288725
Ti       4.95174307       5.29601175      20.06412627      -0.00217362       0.00002261       0.00426549
Ti       1.67870134       2.81383651      20.12810825       0.00361072       0.00435489       0.00074525
Ti       4.41932857       2.51793753      20.17447524       0.00294135       0.00112138       0.00315607
Ti       3.94860711      -1.59391724      20.15188654      -0.00095886      -0.00215920      -0.00273396
Ti       6.92659783       2.67153917      21.52774291      -0.00621004       0.00546865      -0.00405997
Ti       2.86317538       0.57555826      21.51739355       0.00682149      -0.00329601      -0.00001991
Ti       3.66829863       2.94465344      22.85443715       0.00452269       0.00229232       0.00018632
Ti       4.73329491      -1.92688270      22.85945141       0.00169048       0.00824709      -0.00209716
Ti       5.70399385       4.84532781      22.87137413      -0.00896346       0.00339685      -0.00049965
Zn       5.36087323       0.77917553      22.94870071       0.00276399      -0.00659594       0.00066546
Ti       2.82705772       0.59040554      24.25442348       0.00687728      -0.00252872       0.00011431
Ti       6.98330298       2.67996097      24.21596275      -0.00433480       0.00321955       0.00070602
Ti       3.99652830      -1.56876415      25.59046376      -0.00020930      -0.00097312       0.00013712
Ti       4.46147250       2.49743947      25.52281170       0.00193764      -0.00085039      -0.00450342
Ti       1.73828731       2.82062025      25.70599317       0.00411512       0.00159497       0.00120139
Ti       4.98900746       5.28846803      25.69990798      -0.00015674      -0.00038924      -0.00166224
Ti       2.93182294       0.60759616      27.03884948      -0.00042181       0.00300903      -0.00228303
Ti       6.85277842       2.67558608      26.99115506       0.00412240       0.00028347      -0.00249844
Ti       0.38662570       0.54266310      28.20869388      -0.00121872      -0.00035773       0.00062381
Ti       3.68640710       3.02938932      28.16451835       0.00601191       0.00361619       0.00032851
Ti       5.37206739       0.76060129      28.54327874       0.00271150       0.00367660       0.00149985
Ti       5.81171043       4.86868694      28.54652096      -0.00072412       0.00059579       0.00132877
Ti       7.18320432       2.58251352      29.81062670       0.00006110      -0.00074813      -0.00033632
Ti       2.67268350       0.83651288      29.83080278       0.00145617       0.00128459       0.00494764
Ti       4.57042346       2.68493892      30.76749471       0.00346175       0.00153800       0.00254556
Ti       4.07835716      -1.36621451      30.78984332       0.00163393      -0.00089429       0.00096388
Ti       6.14775675       0.47454614      31.43248945       0.00233047       0.00234666       0.00281644
Ti       5.13673407       5.40274878      31.42143728       0.00154226       0.00296576       0.00294564
Ti       3.33011136       0.70139492      32.57286065       0.00165469       0.00356401       0.00036314
Ti       6.72657382       3.08757853      32.55680331       0.00137768       0.00129881       0.00021654
Ti       3.89512448       3.42771113      33.36671391      -0.00099182       0.00035649      -0.00168266
Ti       0.61530319       0.95591273      33.38750309      -0.00091301       0.00351898      -0.00078803
Ti       5.91933608       5.24773374      34.28738823      -0.00073282       0.00152258       0.00026502
Ti       5.60757329       1.06940159      34.30006421       0.00007095      -0.00050566      -0.00155136
Ti       3.20226902       5.44923578      35.22937624       0.00331767      -0.00108782       0.00071702
Ti       2.71255495       1.38821316      35.24449598       0.00118342       0.00146768      -0.00020209
Ti       4.79877815       3.22818230      36.03567516       0.00355780       0.00199157       0.00258640
Ti       4.42077917      -0.90198134      36.05453269      -0.00034812       0.00198624       0.00337044
Ti       6.38900700       0.91819335      37.16838778      -0.00151160       0.00175900       0.00345689
Ti       1.61382225      -0.67944736      37.18396242       0.00193457       0.00022227       0.00300136
Ti       6.95288644       3.63240060      37.82916364       0.00249317       0.00103313       0.00330187
Ti       3.68218172       1.16442016      37.84600892      -0.00058727       0.00147366       0.00423325
Ti       4.33571209       3.74901867      38.77902511       0.00245426       0.00034951       0.00337741
Ti       5.09566044      -1.03991558      38.79644573      -0.00074878       0.00161574       0.00239999
Ti       5.73517617       1.46023106      40.05520909      -0.00127305      -0.00265093       0.00453808
Ti       2.40827723      -0.97011829      40.07160409      -0.00003231      -0.00270506       0.00534528
Ti       3.43710357       5.86986382      40.42024532       0.00124799      -0.00050280      -0.00011838
Ti       2.95174559       1.80165763      40.43632847      -0.00138242      -0.00273523       0.00028636
Ti       4.67092484       3.65422242      41.58529912      -0.00173759      -0.00295918      -0.00051311
Ti       4.84012054      -0.79463839      41.60081957       0.00100737      -0.00427744      -0.00238378
Ti       2.12099729       3.59835150      42.92701805      -0.00026675      -0.00258104       0.00178300
Ti       1.63981908      -0.47535694      42.94261127       0.00035189      -0.00075467       0.00058551
Ti       7.08296865       3.82929850      43.05728904       0.00069634      -0.00253858      -0.00243633
Ti       3.78565655       1.38205313      43.07279176      -0.00224683      -0.00445945      -0.00061986
Ti       4.59048167       3.72652275      44.37410823      -0.00131517      -0.00190255       0.00165078
Ti       4.94348388      -0.82790852      44.38965786      -0.00180035      -0.00326281       0.00159366
Ti       3.46000469       5.93192472      45.73783032       0.00091326      -0.00192952       0.00051250
Ti       2.99225194       1.85100080      45.75359875      -0.00419065      -0.00156310       0.00052084
