100
Lattice="4.4265 -2.555641 0.0 3.767997 6.526363 -0.031456 0.0 0.0 45.781652" Properties=species:S:1:pos:R:3:forces:R:3 job_name=CSL13-Al-Al-53-d-1.39 GB_type=CSL13 element=Al system=Al-53-d-1.39 distance=1.39 energy=-771.51020396 stress_kbar_3x3="_JSON [[-34.87272794, -2.66417578, 0.34386501], [-2.6641758, -38.08039055, 1.48075071], [0.34386501, 1.48075072, -18.18306784]]" pbc="T T T"
Ti       2.48194395      -0.88886723       0.01847597      -0.00769314      -0.00946129       0.00823513
Ti       5.77503288       1.56105865       0.00284995      -0.00541257      -0.01099266       0.00858429
Ti       4.99380035      -0.79742043       1.38597771      -0.00654941      -0.01001348       0.00365939
Ti       4.59845234       3.78185365       1.37042995      -0.00568554      -0.00966963       0.00376145
Ti       7.10793285       3.86809130       2.63211480      -0.00558164      -0.00797266       0.00304613
Ti       3.81403112       1.41896556       2.64788069      -0.00479814      -0.00823099       0.00294609
Ti       1.66808784      -0.43552065       2.87643881      -0.00286131      -0.00803431      -0.00079049
Ti       2.14834330       3.63814396       2.86086263      -0.00516159      -0.00671379      -0.00071459
Ti       4.73080275       3.65995324       4.16527479      -0.00606524      -0.00743021      -0.00330204
Ti       4.82249302      -0.74376871       4.18109974      -0.00335886      -0.00892088      -0.00310142
Ti       3.44888607       5.87636645       5.25914080      -0.00419167      -0.00486597      -0.00198416
Ti       2.95653287       1.80943249       5.27483357      -0.00279606      -0.00531049      -0.00202099
Ti       2.41271858      -0.95203706       5.75526148      -0.00350754      -0.00519648      -0.00553007
Ti       5.75569975       1.46890725       5.73969514      -0.00318154      -0.00485577      -0.00474763
Ti       4.28593194       3.76346551       6.95538976      -0.00198576      -0.00523714      -0.00380437
Ti       5.13423237      -1.07709089       6.97125785      -0.00295825      -0.00439031      -0.00427733
Ti       6.92821178       3.59957545       7.85939797       0.00095249      -0.00333140       0.00170974
Ti       3.67171887       1.12922357       7.87483800      -0.00292667      -0.00072611       0.00207835
Ti       6.37933527       0.88863219       8.60888972      -0.00099221      -0.00357737       0.00267254
Ti       1.59838325      -0.70164586       8.62377434      -0.00339486      -0.00321223       0.00264631
Ti       4.78781264       3.18443614       9.68819973      -0.00212521      -0.00173145       0.00474904
Ti       4.38213205      -0.93228194       9.70496529       0.00019285      -0.00323581       0.00457676
Ti       3.17866671       5.41080849      10.48759449      -0.00111036       0.00005137       0.00359345
Ti       2.68755747       1.34271609      10.50298521       0.00143232      -0.00008048       0.00377545
Ti       5.89582511       5.19690499      11.43215260       0.00002460      -0.00021137       0.00224819
Ti       5.57047731       1.03446074      11.44893369       0.00202501       0.00073689       0.00178238
Ti       0.58706524       0.91359630      12.38558395       0.00034232      -0.00027506       0.00040469
Ti       3.85612590       3.37578471      12.36657334       0.00340971       0.00080029       0.00113283
Ti       3.30746825       0.64310249      13.18976761       0.00237823       0.00166107      -0.00299833
Ti       6.69128465       3.04207014      13.17463247       0.00182886       0.00366772      -0.00487130
Ti       5.08730059       5.34980867      14.27248994       0.00399951      -0.00020446      -0.00845048
Ti       6.10904103       0.41193496      14.29066360       0.00175608       0.00458631      -0.00892499
Ti       4.53682323       2.63198664      14.98454039       0.00403558       0.00545209      -0.00271415
Ti       4.02969715      -1.42234629      15.00661181       0.00699172       0.00397016      -0.00573496
Ti       7.16795199       2.49493054      15.91695144       0.00756055       0.00158090      -0.00475196
Ti       2.58913338       0.78097766      15.92717407       0.00363541       0.00794920      -0.00031548
Ti       5.71955962       4.77708709      17.15045686       0.00838729       0.00723528      -0.00485372
Ti       5.30383373       0.68170594      17.17110950      -0.00063118       0.00514070      -0.00257193
Ti       3.60677821       2.92055006      17.58200650      -0.00046025       0.00213244       0.00181347
Ti       0.32759197       0.47687733      17.60983855       0.00727258       0.00679931       0.00175829
Ti       2.88511188       0.47944570      18.71101428       0.00552073       0.01244852       0.00168052
Ti       6.78562004       2.58972629      18.70574171      -0.00239148       0.00425944       0.00395372
Ti       4.89985049       5.19017191      20.03401430       0.00797372       0.00212567      -0.00604093
Ti       1.65554364       2.73923802      20.05864585       0.00267072       0.00774688       0.00272474
Ti       4.41456169       2.39211362      20.21255962       0.00609633       0.00111157       0.00583991
Ti       3.89985395      -1.68017498      20.25333898       0.01020091       0.00783186       0.00098716
Ti       6.88440706       2.49670349      21.52405255       0.00286676      -0.00037560      -0.00465048
Ti       2.74540233       0.53268776      21.49339726       0.01097950       0.01498259       0.00059732
Ti       3.56841646       2.83588803      22.84598510       0.00491494       0.00999817      -0.00364675
Ti       0.30572294       0.41436409      22.89569498       0.00936722       0.01368531      -0.00443804
Ti       5.73441916       4.72534955      22.86996153      -0.00002347       0.00137245      -0.00163048
Ti       5.24069081       0.65274727      22.87628065      -0.00084257       0.00853450      -0.00389133
Ti       2.76137973       0.56033305      24.27164282       0.01048387       0.01249061      -0.00110056
Al       6.95608024       2.47937233      24.25523937       0.00363000      -0.00074597       0.01191957
Ti       3.93964254      -1.62054066      25.53531812       0.00592426       0.01204771       0.00276646
Ti       4.40694326       2.43328609      25.53277294       0.00547376       0.00145683       0.00072016
Ti       1.68521976       2.75841584      25.75437169       0.00353141       0.00960250       0.00312917
Ti       4.95133011       5.25598171      25.75628870       0.00149399       0.00431912       0.00576515
Ti       2.93025180       0.53436422      27.06969970       0.00278453       0.00713320      -0.00032817
Ti       6.80102466       2.64502866      26.99808421      -0.00409470       0.00234805      -0.00128578
Ti       0.35770383       0.51232224      28.13878900       0.00116484       0.00622504       0.00374319
Ti       3.62282419       3.01741685      28.14350781       0.00372127       0.00239717       0.00296814
Ti       5.34000188       0.75354671      28.57801451       0.00336818      -0.00219928       0.00324981
Ti       5.76397005       4.82545583      28.57681787       0.00199021       0.01021606       0.00881941
Ti       7.19082839       2.56531940      29.82359478       0.00525689       0.00226682       0.00238233
Ti       2.58673268       0.85003582      29.84454382       0.00328853       0.00939703      -0.00067544
Ti       4.55344242       2.68894805      30.74281774       0.00382525       0.00612517      -0.00298015
Ti       4.07057246      -1.33662293      30.73257826       0.00323999       0.00218520      -0.00108624
Ti       6.12792293       0.49024093      31.45949934       0.00653891       0.00369400       0.00068613
Ti       5.12718702       5.39451699      31.44355519       0.00281772       0.00789042      -0.00286759
Ti       3.34128632       0.70690914      32.56124145       0.00404010       0.00559360      -0.00080008
Ti       6.70005342       3.12346601      32.54944286       0.00498466       0.00563834       0.00003438
Ti       3.89932043       3.45514422      33.35209937       0.00092995       0.00202459       0.00020125
Ti       0.61468346       0.98885786      33.35665123      -0.00290276       0.00195505       0.00058833
Ti       5.92457902       5.28021218      34.30794217       0.00074200      -0.00007830       0.00405516
Ti       5.60375240       1.10134882      34.31799430      -0.00084107       0.00391735       0.00424543
Ti       3.21676045       5.48554705      35.21399141      -0.00077563       0.00186732       0.00331815
Ti       2.71583912       1.42884196      35.22688841       0.00284987       0.00139640       0.00313337
Ti       4.79886854       3.27250582      36.03369174      -0.00103924      -0.00226717       0.00262796
Ti       4.44332034      -0.87499760      36.04866462      -0.00253433      -0.00033456       0.00344052
Ti       6.41241116       0.94971133      37.17386048      -0.00341015      -0.00039403       0.00330229
Ti       1.61968796      -0.63800041      37.19622862      -0.00102543      -0.00187562       0.00378813
Ti       6.97140419       3.67567766      37.81523140      -0.00248904      -0.00532681      -0.00066539
Ti       3.70418265       1.20814906      37.82859593      -0.00642644      -0.00341611      -0.00166993
Ti       4.36445501       3.77967376      38.78532818      -0.00487665      -0.00422450      -0.00240687
Ti       5.10184043      -0.99461256      38.80059169      -0.00381838      -0.00622517      -0.00159451
Ti       5.75375872       1.50164049      40.06309304      -0.00363162      -0.00466438      -0.00752343
Ti       2.43675715      -0.93412418      40.07966059      -0.00654566      -0.00386046      -0.00743311
Ti       3.46235651       5.91304687      40.41051232      -0.00697884      -0.00759662      -0.00821673
Ti       2.97699024       1.84159556      40.42673190      -0.00681167      -0.00679288      -0.00875243
Ti       4.69224815       3.69747468      41.58841280      -0.00649387      -0.00538797      -0.00420810
Ti       4.87158163      -0.75736903      41.60492259      -0.00565533      -0.00886527      -0.00395560
Ti       2.14943359       3.64189146      42.93089099      -0.00771158      -0.00913036      -0.00490964
Ti       1.66899804      -0.43200252      42.94686108      -0.00584976      -0.00992008      -0.00497850
Ti       7.11172428       3.87124416      43.05470885      -0.00497111      -0.00393571      -0.00488209
Ti       3.81334346       1.42480626      43.07004192      -0.00409969      -0.00533352      -0.00463589
Ti       4.62022190       3.77011642      44.37555744      -0.00533138      -0.00840027       0.00258199
Ti       4.97203349      -0.78389945      44.39108929      -0.00616802      -0.00861550       0.00214182
Ti       3.48802573       5.97665247      45.73872309      -0.00312998      -0.00750801       0.00872958
Ti       3.02284797       1.89416467      45.75452236      -0.00459730      -0.00669234       0.00841942
