100
Lattice="4.4265 -2.555641 0.0 3.767997 6.526363 -0.031456 0.0 0.0 45.781652" Properties=species:S:1:pos:R:3:forces:R:3 job_name=CSL13-V-V-52-d-1.39 GB_type=CSL13 element=V system=V-52-d-1.39 distance=1.39 energy=-775.57913808 stress_kbar_3x3="_JSON [[-37.10951141, -2.79041015, 0.42475622], [-2.79041017, -40.56039077, 1.13849313], [0.42475624, 1.13849312, -18.64586493]]" pbc="T T T"
Ti       2.47783477      -0.89541645       0.02005366      -0.00213503      -0.00489683       0.00035083
Ti       5.77149635       1.55398354       0.00441228      -0.00378049      -0.00508313      -0.00025162
Ti       4.99058819      -0.80334836       1.38622326      -0.00414092      -0.00320059       0.00278224
Ti       4.59478294       3.77632474       1.37051307      -0.00148221      -0.00723040       0.00246379
Ti       7.10402119       3.86272288       2.63302668      -0.00066763      -0.00454770       0.00533430
Ti       3.81088477       1.41322102       2.64876434      -0.00424871      -0.00334900       0.00615207
Ti       1.66485168      -0.44128023       2.87760327      -0.00175126      -0.00408079       0.00096211
Ti       2.14471147       3.63288938       2.86184331      -0.00427797      -0.00456507       0.00126035
Ti       4.72792410       3.65673704       4.16718286      -0.00597741      -0.00907822       0.00446816
Ti       4.82009118      -0.74770633       4.18291330      -0.00422225      -0.00794167       0.00648765
Ti       3.44618281       5.87282718       5.26072357      -0.00060533      -0.00443325      -0.00022526
Ti       2.95370890       1.80660761       5.27632586       0.00006437      -0.00337740      -0.00133499
Ti       2.40929980      -0.95424168       5.75757750      -0.00248580      -0.00413255       0.00023017
Ti       5.75432572       1.46539883       5.74222702      -0.00231396      -0.00637277      -0.00162213
Ti       4.28399396       3.76205610       6.95964969      -0.00638612      -0.00464001      -0.00191485
Ti       5.13419565      -1.07949419       6.97508268      -0.00406471      -0.00378476       0.00011584
Ti       6.92767559       3.59739508       7.86100718      -0.00250492      -0.00128945      -0.00239576
Ti       3.66839981       1.12716814       7.87724821      -0.00413815      -0.00045045      -0.00717339
Ti       6.37604479       0.88899959       8.61476673      -0.00109985      -0.00205913      -0.00574878
Ti       1.59853530      -0.70372478       8.63005086      -0.00018402      -0.00494104      -0.00277795
Ti       4.78929654       3.18018280       9.69166762       0.00455135      -0.00024870      -0.00466526
Ti       4.37816945      -0.93215470       9.70715956       0.00407943      -0.00170087      -0.00367689
Ti       3.17405788       5.40835970      10.48845355       0.00440624      -0.00423221       0.00108899
Ti       2.68800803       1.33936497      10.50454005       0.00129279      -0.00173025      -0.00445048
Ti       5.89631595       5.19599106      11.44285702      -0.00357073       0.00178701       0.00053002
Ti       5.56998746       1.03108619      11.46021403       0.00240697       0.00215891      -0.00084095
Ti       0.58723247       0.90799894      12.38097219      -0.00109020       0.00302594       0.00689945
Ti       3.85649000       3.37489262      12.36526593       0.00107511       0.00667502       0.00243990
Ti       3.30069301       0.64910362      13.19348483       0.00371994       0.00193615      -0.00111484
Ti       6.69914986       3.03821900      13.17779453      -0.00230827       0.00224584      -0.00110612
Ti       5.09092807       5.35489752      14.29127234       0.00895440       0.00260303      -0.00209545
Ti       6.11707106       0.41318093      14.30640596      -0.00172566       0.00191537      -0.00270550
Ti       4.53865019       2.63345570      14.98016509       0.00956835      -0.00332009      -0.00071087
Ti       4.03603000      -1.42305652      14.99748758       0.00361678       0.00335823      -0.00097850
Ti       7.16096937       2.51017516      15.92602121       0.00379814       0.00814158      -0.00541402
Ti       2.61624381       0.78369427      15.94045643       0.00320584       0.00689817      -0.00871309
Ti       5.75118123       4.79403667      17.16651544      -0.00048996       0.01124414      -0.00361259
Ti       5.30896585       0.70023246      17.18457378       0.00348078       0.00328840      -0.00217942
Ti       3.62192275       2.94549133      17.58315389       0.00510509      -0.00247305      -0.00047056
Ti       0.34188842       0.48479929      17.59822638      -0.00254711       0.00662323      -0.00255472
Ti       2.89112988       0.51095163      18.73995870       0.00266281       0.00998461      -0.00238144
Ti       6.80028839       2.60733476      18.72790956       0.00466742       0.00288475      -0.00056398
Ti       4.94163118       5.20391523      20.04486148       0.00726420       0.00835399      -0.00906529
Ti       1.64831918       2.75391936      20.05132515       0.00051066       0.00486055      -0.00939253
Ti       4.39783036       2.41818422      20.22826055      -0.00109570       0.00686887      -0.00397059
Ti       3.93888844      -1.65569595      20.23587919       0.00481793      -0.00275892      -0.00813688
Ti       6.90448449       2.51971368      21.50122272       0.00694233       0.00182884       0.00796627
Ti       2.76462272       0.55749787      21.52715749      -0.00787165      -0.00108756       0.00757024
Ti       3.56785841       2.85980612      22.91354872       0.00634182       0.01147114      -0.00002726
Ti       0.34246536       0.43139712      22.93250585      -0.00781083       0.00570211       0.00402110
Ti       5.75941885       4.75323183      22.90743808       0.00383573       0.00441017       0.00888819
Ti       5.22041610       0.65003248      22.92142120      -0.00232090       0.00932045       0.00041530
V        2.76608992       0.55807947      24.25745455       0.00512777       0.00934180       0.00175888
Ti       6.89984327       2.52411140      24.25734521       0.00847433      -0.00156936      -0.00897307
Ti       3.91178244      -1.59844226      25.51731876       0.01569347       0.00485164      -0.00739250
Ti       4.39903858       2.38712017      25.51511816      -0.00460352       0.01048784      -0.00064178
Ti       1.67363518       2.71906342      25.67284874       0.00638756       0.00438506      -0.00103914
Ti       4.93967812       5.25032464      25.66298600      -0.00094875       0.00255931      -0.01030317
Ti       2.89147393       0.53376650      27.03148576       0.00272688      -0.00145875       0.00039415
Ti       6.78984064       2.63927096      27.02157270      -0.00719305       0.00538021       0.00822053
Ti       0.34075830       0.53537755      28.16018934       0.00031166       0.00084900      -0.00180397
Ti       3.61460100       2.97434246      28.13639914       0.01086348      -0.00232330      -0.00736598
Ti       5.31679738       0.73410197      28.57057119       0.00385437       0.01100946       0.00253223
Ti       5.73498687       4.83888751      28.55702605       0.00401943       0.00554782       0.00608724
Ti       7.19484178       2.54055572      29.80469391       0.00732164       0.01001075      -0.01087197
Ti       2.60464663       0.84036891      29.82531829      -0.00316723       0.00483839      -0.00391877
Ti       4.56224255       2.70195326      30.72917858       0.00447232      -0.00331769      -0.00113598
Ti       4.05202611      -1.36481735      30.74861879       0.00650769      -0.00412880      -0.00601687
Ti       6.12305038       0.47806987      31.45305019      -0.00426514       0.00516650       0.00677846
Ti       5.11576629       5.40818882      31.44130095       0.00607460       0.00738085       0.00473111
Ti       3.35038334       0.70383175      32.55505000      -0.00008286       0.00327374       0.00463452
Ti       6.70961947       3.11191357      32.53822727       0.00257340       0.00526138       0.00131812
Ti       3.89472502       3.44340933      33.34590266      -0.00145726       0.00578511       0.00574755
Ti       0.61618844       0.99259901      33.36136923      -0.00150463      -0.00021573       0.00043676
Ti       5.92885256       5.27015406      34.29834499      -0.00395625      -0.00108492      -0.00087140
Ti       5.60936952       1.10540031      34.31386972      -0.00176574      -0.00429411       0.00266028
Ti       3.22448488       5.48662923      35.20445377       0.00163787      -0.00412260       0.00674278
Ti       2.72281106       1.42064820      35.22255300      -0.00225928       0.00012989       0.00663897
Ti       4.79957312       3.27199435      36.03116576      -0.00124077       0.00024683       0.00128041
Ti       4.44324663      -0.87466871      36.04693804       0.00606498      -0.00613282      -0.00036461
Ti       6.41706413       0.94478558      37.17444312      -0.00216557      -0.00291126       0.00030841
Ti       1.62633493      -0.63865912      37.19082969      -0.00176671      -0.00795458      -0.00126808
Ti       6.97513303       3.67022268      37.80817289      -0.00542737      -0.00096314      -0.00268374
Ti       3.70774159       1.20918356      37.82390181      -0.00428233      -0.00376733      -0.00092163
Ti       4.36978670       3.77562494      38.78303142      -0.00911686       0.00085311       0.00490612
Ti       5.10166189      -0.99688602      38.79797487      -0.00556160      -0.00523942       0.00085269
Ti       5.75422235       1.49663551      40.06220660      -0.00111066      -0.00286033       0.00267773
Ti       2.43702831      -0.93892564      40.07781613      -0.00535989      -0.00419972      -0.00119706
Ti       3.46226239       5.90834621      40.40578317      -0.00528971      -0.00508069       0.00578556
Ti       2.97638617       1.83703982      40.42100572      -0.00292045      -0.00967113       0.01032841
Ti       4.68822598       3.69354813      41.58682740       0.00461009      -0.00713563       0.01060396
Ti       4.87180542      -0.76315665      41.60316854      -0.00418164      -0.00258905       0.00616478
Ti       2.14685939       3.63534275      42.93047771      -0.00745986      -0.00847552       0.00263132
Ti       1.66650751      -0.43805370      42.94667996      -0.00517311      -0.00922810       0.00021910
Ti       7.10846795       3.86446710      43.05176790      -0.00014224      -0.00129959       0.00350283
Ti       3.81065490       1.41783294      43.06765408      -0.00174395      -0.00002053       0.00346064
Ti       4.61735962       3.76376850      44.37577825      -0.00134410      -0.00563678      -0.00109518
Ti       4.96856170      -0.79041161      44.39172414      -0.00378624      -0.00032658      -0.00280367
Ti       3.48483023       5.96957541      45.73921527      -0.00547445      -0.00506721      -0.00432280
Ti       3.01872024       1.88791018      45.75492867      -0.00104108      -0.00686467      -0.00456718
