100
Lattice="4.4265 -2.555641 0.0 3.767997 6.526363 -0.031456 0.0 0.0 45.781652" Properties=species:S:1:pos:R:3:forces:R:3 job_name=CSL13-Al-Al-57-d-2.88 GB_type=CSL13 element=Al system=Al-57-d-2.88 distance=2.88 energy=-771.56642156 stress_kbar_3x3="_JSON [[-35.49927512, -2.33559942, 1.01202836], [-2.33559948, -37.72671876, 1.44268041], [1.0120284, 1.44268039, -17.31390672]]" pbc="T T T"
Ti       2.36660874      -1.00643706       0.26060822      -0.00760287      -0.00755212       0.00636348
Ti       5.72506488       1.40327874       0.24406541      -0.00593162      -0.01277589       0.00177647
Ti       5.10279798      -1.12973525       1.47480465      -0.00172922      -0.01126961      -0.00345829
Ti       4.23556450       3.72184188       1.45808951      -0.00637119      -0.01268976      -0.00498001
Ti       6.88730969       3.54471612       2.33731302      -0.00642945      -0.01264566       0.00008825
Ti       3.62926199       1.08485665       2.35951575      -0.00056926      -0.01396160      -0.00750539
Ti       1.57246110      -0.74662530       3.12689694      -0.00698103      -0.01325971       0.00303979
Ti       6.33345429       0.85286705       3.11632584      -0.01006592      -0.01578799      -0.00473819
Ti       4.76209998       3.14239498       4.17820523      -0.01248038      -0.00545796      -0.00064294
Ti       4.32654755      -0.96152464       4.19475675      -0.00215482      -0.01488081      -0.00360580
Ti       3.13261894       5.37684415       4.96553161      -0.00279174      -0.00845115       0.00066184
Ti       2.65080460       1.29819499       4.98293503      -0.00100976      -0.01141318      -0.00382477
Ti       5.85244862       5.16610751       5.95562950      -0.00270986      -0.00601695      -0.00134971
Ti       5.53045816       1.00392456       5.96810464       0.00021891      -0.00414105       0.00050940
Ti       3.80626158       3.34317004       6.83328983      -0.00329971      -0.00249967       0.00340186
Ti       0.54836374       0.88133596       6.85246403       0.00163748      -0.00068403      -0.00022313
Ti       6.68154072       3.00339021       7.66017045       0.00244468      -0.00734058       0.00318781
Ti       3.24241603       0.63898874       7.67659830      -0.00235874       0.00627198       0.00124594
Ti       6.08421222       0.40319535       8.82864268      -0.00043281       0.00933238       0.00654850
Ti       5.04600306       5.35443239       8.81228485       0.00928315      -0.00046664       0.00513891
Ti       4.49543250       2.62099084       9.43244017       0.00110185       0.00063463       0.00586535
Ti       3.99080791      -1.44511023       9.44717422       0.00836385       0.01392515       0.00436791
Ti       7.08936254       2.54179608      10.42334403       0.00200022      -0.00045201       0.00311729
Ti       2.62746313       0.76773519      10.43669066       0.00080082       0.01471475       0.00641409
Ti       5.73350972       4.81886207      11.70507037       0.00255798       0.00417009       0.00342428
Ti       5.26994062       0.73494245      11.71779737       0.00554179       0.00202516       0.00509935
Ti       0.30874147       0.51082456      12.04585977       0.00341179       0.00409090       0.00710146
Ti       3.59229561       2.96267337      12.03115992       0.00223611       0.00572259       0.00664468
Ti       2.83405385       0.57294639      13.24425521       0.00209697       0.00461407      -0.00134599
Ti       6.80847428       2.62631530      13.22510501      -0.00506950      -0.00180099       0.00463951
Ti       4.91248954       5.25585671      14.57687794       0.00123948      -0.00175602      -0.00463229
Ti       1.62842683       2.80215849      14.59043150       0.00444537       0.00207843      -0.00484633
Ti       4.37839620       2.46662630      14.67952980       0.00350730      -0.00320449      -0.00227779
Ti       3.90688978      -1.61074536      14.69425355       0.00212543      -0.00191361       0.00011589
Ti       6.85966169       2.57853598      16.01262970       0.00315995       0.00454683       0.00083573
Ti       2.76114265       0.59622321      16.02935685      -0.00547945       0.00119168      -0.00010052
Ti       5.71883072       4.77924832      17.44381992       0.00651877       0.00358811       0.00372664
Ti       5.23555337       0.71352148      17.45773150       0.00740548       0.00047450       0.00131542
Ti       3.56937084       2.92404574      17.36119778       0.00479826      -0.00198822       0.00587888
Ti       0.27711137       0.47977401      17.36670830      -0.00153510      -0.00921441       0.00787933
Ti       2.70212599       0.63458108      18.82251024       0.00104275      -0.01215638      -0.00049673
Ti       6.92273715       2.53855450      18.80377257       0.00159023       0.00917398       0.00107289
Ti       4.93376758       5.24791056      20.33267021       0.00873764       0.00223366      -0.01035991
Ti       6.05004684       0.27037350      20.30700586      -0.00003745       0.00076602      -0.00942665
Ti       4.41737328       2.47884417      19.99974462       0.00768604       0.00417510       0.00310660
Ti       3.91188365      -1.60400646      19.98804325      -0.00532819       0.00493183       0.00554028
Ti       6.72257091       2.71007262      21.65083735       0.01436322       0.00891672      -0.00626384
Ti       3.01106801       0.49305071      21.62256324      -0.00172629      -0.00845678      -0.01155470
Ti       3.66341214       3.00791463      22.60419156      -0.00916833       0.01128975       0.01064461
Ti       0.42794292       0.65144062      22.53252864       0.00435956       0.01063284       0.00210421
Ti       5.69160303       4.94665740      23.19085804       0.00397153       0.00553729      -0.00689809
Ti       5.36122935       0.76691503      23.23286852      -0.00026353       0.00109247      -0.00713576
Ti       2.62311927       1.01401192      24.39746105       0.00601149      -0.00647738      -0.00244979
Ti       3.04193266       4.99589813      24.38506437       0.01464590      -0.00114836       0.00051279
Ti       4.20849646      -1.37081183      25.15945784      -0.00980291      -0.00080556       0.00084480
Ti       4.82608981       2.87643052      25.13224662       0.00492657       0.00943403       0.00452977
Ti       6.18295749       0.61028159      26.06801358      -0.00205251       0.00879760      -0.00518584
Al       5.26516226       5.49799373      26.06525732       0.00101819      -0.00530902       0.00127248
Ti       3.55062790       0.66579762      27.03998212       0.00282606      -0.00373164      -0.00111609
Ti       6.92434103       3.29595245      27.02548008       0.00374332       0.00806426       0.00262266
Ti       0.83749218       1.14669048      27.78931817      -0.01204506      -0.00501026      -0.00036622
Ti       4.05202532       3.49282507      27.77084382       0.00606124       0.00521619      -0.00781897
Ti       5.68089625       1.24340092      28.90175974      -0.00246630       0.00189629      -0.00256751
Ti       2.21655666      -1.13304887      28.94048315       0.00360609      -0.00141654      -0.01461706
Ti       3.31274341       5.56531105      29.65919156      -0.00490370       0.00361465      -0.01617298
Ti       2.87144104       1.58038951      29.58893157       0.00301921      -0.00618800       0.00809045
Ti       4.78448870       3.40927403      30.53108438      -0.00604433      -0.00573363      -0.00037849
Ti       4.64414739      -0.87420464      30.50890684      -0.00964810       0.00932389       0.00141494
Ti       2.03389945       3.49324055      31.80307671      -0.00313068      -0.00779533       0.00695158
Ti       1.61704443      -0.59588204      31.78548803       0.00334745       0.00013904       0.00143500
Ti       3.74288756       1.23395851      32.20341097       0.00169743       0.00508058       0.00701439
Ti       7.02044553       3.71619547      32.20942016      -0.00435391      -0.00616015       0.01759940
Ti       4.46009802       3.68450126      33.31883536      -0.01051640      -0.01044446       0.00285007
Ti       4.98992066      -0.96229274      33.34096664       0.00464177       0.00888617       0.00015927
Ti       2.41639166      -1.00422048      34.65925401      -0.00412804       0.00646773      -0.00407398
Ti       5.70261499       1.44238099      34.64347121      -0.00062446       0.00227613      -0.00966129
Ti       3.42216103       5.84896833      34.83189246      -0.00548781      -0.00105113       0.00356485
Ti       2.95419762       1.77803206      34.83711639       0.00176555       0.00599840      -0.01036436
Ti       4.60001636       3.63714348      36.11273820       0.01043087       0.00172239      -0.00107136
Ti       4.87287007      -0.87019661      36.13160192       0.00336349       0.00461428      -0.00312447
Ti       2.09175895       3.54981655      37.48295471       0.00570149       0.00441968       0.00077009
Ti       1.62671281      -0.53217699      37.49615664       0.00049927      -0.00222438       0.00366144
Ti       7.06674639       3.76783897      37.51968325       0.00460226       0.00718008       0.00550887
Ti       3.75524615       1.32956238      37.53190175       0.00644983       0.00822656      -0.00217209
Ti       4.58146468       3.66027337      38.88336005       0.00778196       0.00944945       0.00167617
Ti       4.90375707      -0.87517771      38.90044678      -0.00013433       0.00062187       0.00481131
Ti       5.72745986       1.46369224      40.31363888       0.00312440       0.00737463       0.00799113
Ti       2.42806836      -0.98392605      40.32933673      -0.00411991       0.00195518       0.00236977
Ti       3.43214468       5.87799701      40.22278134       0.00282570       0.01211061      -0.00253535
Ti       2.97153678       1.79224174      40.23849681       0.00514818       0.00592294      -0.00225619
Ti       4.54147451       3.69392731      41.65625362      -0.00788759       0.01020944      -0.00231483
Ti       4.95166489      -0.89276500      41.67158942       0.00392064       0.00164355       0.00164958
Ti       2.09983706       3.55729248      43.15704299      -0.00583200       0.00391164       0.00755116
Ti       1.62604386      -0.52075094      43.17046289       0.00180065       0.00011238       0.00727313
Ti       7.05914510       3.78084848      42.90356593      -0.00198214      -0.00467334      -0.01052458
Ti       3.76678675       1.33373614      42.92182459      -0.00487533       0.00114563      -0.01107308
Ti       4.69535873       3.58538699      44.45493942      -0.00134309      -0.01200673      -0.00122246
Ti       4.77550717      -0.81206552      44.46682605      -0.01089908       0.00347039       0.00291266
Ti       3.40711111       5.81145884      45.52783908      -0.00949350      -0.00589790      -0.00831583
Ti       2.91272068       1.74108415      45.54545040      -0.00630822      -0.00710550      -0.01084475
