100
Lattice="4.4265 -2.555641 0.0 3.767997 6.526363 -0.031456 0.0 0.0 45.781652" Properties=species:S:1:pos:R:3:forces:R:3 job_name=CSL13-Zn-Zn-50-d-0.00 GB_type=CSL13 element=Zn system=Zn-50-d-0.00 distance=0.0 energy=-767.73195607 stress_kbar_3x3="_JSON [[-36.87357219, -1.48503767, 0.6873979], [-1.48503769, -37.07044115, 1.72785429], [0.68739793, 1.72785422, -17.43510864]]" pbc="T T T"
Ti       2.45879419      -0.93819212       0.01830076       0.00128548      -0.00066360       0.00136212
Ti       5.74958552       1.51271825       0.00257644       0.00052623      -0.00248100       0.00154720
Ti       4.97145609      -0.84500020       1.38644247       0.00008581      -0.00132505       0.00275809
Ti       4.57425525       3.73546024       1.37110944       0.00020164      -0.00009356       0.00060994
Ti       7.08517520       3.82248506       2.62808506      -0.00080303       0.00080188      -0.00056079
Ti       3.79198579       1.37309380       2.64380953      -0.00029492      -0.00222945      -0.00199303
Ti       1.64680176      -0.48164314       2.88034539      -0.00188014      -0.00043781      -0.00254198
Ti       2.12525421       3.59289566       2.86383316      -0.00338115      -0.00176443       0.00160139
Ti       4.71746164       3.61416334       4.17188353       0.00122869      -0.00197384      -0.00345214
Ti       4.79530734      -0.78169995       4.18664975      -0.00136495      -0.00188506       0.00071470
Ti       3.42853321       5.83241882       5.24624479      -0.00152786      -0.00176005      -0.00247546
Ti       2.93440696       1.76640489       5.26211751      -0.00307618      -0.00383564      -0.00524831
Ti       2.38674687      -0.98847388       5.76405898      -0.00217099      -0.00110932      -0.00029888
Ti       5.74313405       1.42507090       5.74805154       0.00007412      -0.00335400       0.00230435
Ti       4.25260845       3.73230392       6.96023071      -0.00153382       0.00128176       0.00022368
Ti       5.12901591      -1.12432096       6.97604832       0.00046553      -0.00218790      -0.00216487
Ti       6.90805852       3.55183272       7.84052966      -0.00238959      -0.00306298      -0.00544890
Ti       3.64576426       1.08498108       7.85534645      -0.00150356      -0.00099542      -0.00087560
Ti       6.35157581       0.85683137       8.62237923      -0.00199772      -0.00028661      -0.00220852
Ti       1.58951984      -0.74310543       8.63743572       0.00145477      -0.00375236       0.00022539
Ti       4.78482507       3.13784098       9.67971934       0.00315992      -0.00343896      -0.00047893
Ti       4.34683110      -0.96064258       9.69694965      -0.00175121      -0.00101958      -0.00527785
Ti       3.14983578       5.37360263      10.46975739      -0.00203509      -0.00071507      -0.00311805
Ti       2.67613348       1.29603534      10.48541756      -0.00153820      -0.00109817      -0.00187824
Ti       5.87783596       5.16338260      11.46642214       0.00132038      -0.00017153       0.00270888
Ti       5.55535285       1.00096849      11.48500529       0.00229557       0.00093963      -0.00161434
Ti       0.57395573       0.87465685      12.35020575       0.00015711      -0.00034630      -0.00561514
Ti       3.83425263       3.34144639      12.33311262       0.00053544      -0.00153425      -0.00335537
Ti       3.26089060       0.64168939      13.18274524      -0.00124955       0.00216540       0.00166625
Ti       6.71996477       2.99937741      13.16685551       0.00370904       0.00160699      -0.00251295
Ti       5.08251453       5.35758567      14.33487861       0.00294461      -0.00063556       0.00248663
Ti       6.12414600       0.40522879      14.34749883       0.00608063       0.00417481      -0.00080314
Ti       4.53068124       2.61835826      14.92368041       0.00326380       0.00304719       0.00115049
Ti       4.03101705      -1.44206612      14.94401230       0.00066948       0.00019576      -0.00519422
Ti       7.12070099       2.56261142      15.93029948      -0.00070462       0.00449095      -0.00038665
Ti       2.68481132       0.76511932      15.95064798       0.00403545      -0.00061756      -0.00092349
Ti       5.77891964       4.82946708      17.23371703      -0.00256040       0.00233625       0.00251882
Ti       5.31250259       0.75953201      17.23536577       0.00128379      -0.00089434      -0.00325209
Ti       3.62982413       2.97184190      17.51392714       0.00261776      -0.00225816      -0.00622918
Ti       0.36516922       0.53205246      17.54733907       0.00046478       0.00389641      -0.00267458
Ti       2.88106760       0.57286656      18.76964251       0.00131693       0.00092815      -0.00097306
Ti       6.88866947       2.64359516      18.73130386       0.00663691      -0.00244728       0.00440043
Ti       4.95584979       5.27374921      20.11161227       0.00000639       0.00047956      -0.00084571
Ti       1.70249024       2.82075188      20.07920085       0.00041836       0.00231791       0.00306711
Ti       4.43169835       2.47791524      20.13657657      -0.00133952       0.00564454      -0.00330081
Ti       3.98771476      -1.58363924      20.19203473      -0.00149383       0.00042074      -0.00215698
Ti       6.85234739       2.62400889      21.50193957       0.00073303      -0.00100805      -0.00092771
Ti       2.87044541       0.66521605      21.54417909       0.00024881      -0.00070338      -0.00454267
Ti       3.75537064       2.99367813      22.84446306      -0.00537053      -0.00300973      -0.00085014
Ti       0.30763982       0.53507916      22.87084673      -0.00285871      -0.00018280      -0.00014332
Zn       5.78041808       4.89021175      22.93001549       0.00101707      -0.00117499       0.00305898
Ti       5.36503776       0.69110438      22.88655357       0.00258278      -0.00037196       0.00085074
Ti       2.84994305       0.71681719      24.23039944      -0.00068860       0.00111136       0.00372136
Ti       6.88177683       2.60119733      24.23835031       0.00070490      -0.00194805      -0.00020289
Ti       3.94990753      -1.55853014      25.53818705      -0.00197353       0.00134764       0.00175122
Ti       4.42894672       2.53043257      25.57531256       0.00037177       0.00650843       0.00206245
Ti       1.67745452       2.84893946      25.71492438      -0.00071893       0.00061013      -0.00124631
Ti       4.93199567       5.32721376      25.68911463       0.00061803      -0.00081639      -0.00063882
Ti       2.90785225       0.60070448      27.00606576      -0.00073884       0.00185975       0.00011517
Ti       6.84518949       2.69794822      27.02297718       0.00622403      -0.00151657      -0.00366103
Ti       0.37116696       0.59056938      28.17883247      -0.00071557       0.00518722       0.00254785
Ti       3.63553378       3.01622115      28.19221880       0.00042235      -0.00109985       0.00466933
Ti       5.32778519       0.79523352      28.56057389      -0.00038489       0.00022004       0.00249541
Ti       5.75784511       4.88722628      28.52774018      -0.00302210       0.00308271      -0.00324096
Ti       7.17230211       2.58628484      29.81450538       0.00185118       0.00319755       0.00252782
Ti       2.66110075       0.83982734      29.82513903       0.00174504       0.00024359       0.00142651
Ti       4.56157374       2.70168835      30.77383661       0.00212139       0.00371863      -0.00450687
Ti       4.05670352      -1.37170114      30.78154269      -0.00043588       0.00254342       0.00153051
Ti       6.12721458       0.47667854      31.43550984       0.00490674       0.00401338       0.00282355
Ti       5.12166214       5.41535883      31.41617536       0.00198469      -0.00129251      -0.00199298
Ti       3.32787622       0.69649985      32.57147988      -0.00018651       0.00315933      -0.00188028
Ti       6.72689780       3.08868229      32.55520286       0.00206374       0.00266881       0.00239120
Ti       3.87917014       3.42153520      33.37047045       0.00126852       0.00004018       0.00122530
Ti       0.61194009       0.96976421      33.38013189      -0.00111220       0.00218325       0.00471740
Ti       5.90849001       5.24538790      34.28329277       0.00084620       0.00087128      -0.00112676
Ti       5.60226349       1.07847022      34.30087645       0.00343268       0.00159543       0.00363054
Ti       3.20577302       5.45375594      35.22728391       0.00091847       0.00167715       0.00240517
Ti       2.70949034       1.38269758      35.24424988      -0.00180872       0.00125829       0.00059041
Ti       4.79584673       3.23282837      36.03858945       0.00083362       0.00157602      -0.00102386
Ti       4.41451116      -0.90013823      36.05011558      -0.00042587       0.00078435       0.00472247
Ti       6.39210949       0.91443351      37.16700690      -0.00167187       0.00073043       0.00485017
Ti       1.61972357      -0.67769144      37.18343051       0.00087520      -0.00165578       0.00240737
Ti       6.95473190       3.62777497      37.82918741      -0.00021510      -0.00014785       0.00256459
Ti       3.68897368       1.16771154      37.84455930      -0.00243035      -0.00002195      -0.00058819
Ti       4.33912230       3.74952074      38.77967039       0.00042091       0.00039070       0.00117926
Ti       5.09858562      -1.04035125      38.79399440      -0.00356500       0.00123693       0.00046710
Ti       5.74256812       1.45728609      40.05579924      -0.00080130      -0.00258382       0.00051887
Ti       2.41593318      -0.97320428      40.07060574      -0.00091871      -0.00168675       0.00233236
Ti       3.44515086       5.86919488      40.41971196      -0.00337577       0.00029653      -0.00015867
Ti       2.95740665       1.79762769      40.43456191      -0.00192124      -0.00212882       0.00431999
Ti       4.67743798       3.65066721      41.58345503       0.00050974      -0.00112157       0.00535597
Ti       4.84793388      -0.79800240      41.60022973      -0.00221286      -0.00246138       0.00187493
Ti       2.12811418       3.59415324      42.92621498      -0.00425631      -0.00296762       0.00092432
Ti       1.64709252      -0.47888411      42.94155122      -0.00163560      -0.00061090       0.00441230
Ti       7.08985435       3.82511955      43.05625408      -0.00054133       0.00064869      -0.00001671
Ti       3.79232970       1.37793231      43.07201097      -0.00029371      -0.00098561       0.00072790
Ti       4.59662389       3.72279938      44.37369401       0.00070692      -0.00163835      -0.00091210
Ti       4.94969377      -0.83224308      44.39001283      -0.00191795      -0.00113577      -0.00316707
Ti       3.46633170       5.92812445      45.73841787      -0.00263812      -0.00281275      -0.00036651
Ti       2.99783643       1.84737110      45.75423853      -0.00021398      -0.00403116      -0.00149087
