100
Lattice="4.4265 -2.555641 0.0 3.767997 6.526363 -0.031456 0.0 0.0 45.781652" Properties=species:S:1:pos:R:3 job_name=CSL13-Zr-Zr-59-d-4.19 GB_type=CSL13 element=Zr system=Zr-59-d-4.19 distance=4.19 energy=-775.2890437 pbc="T T T"
Ti       2.48655060      -0.88300930       0.03531605
Ti       5.77798721       1.56778319       0.01950483
Ti       5.00010911      -0.79178055       1.39656812
Ti       4.60025611       3.79019275       1.38060068
Ti       7.11060813       3.87440214       2.63086951
Ti       3.81770180       1.42477511       2.64668165
Ti       1.67346171      -0.42795978       2.88344582
Ti       2.15191016       3.64692725       2.86783989
Ti       4.74120937       3.66285962       4.16686931
Ti       4.81923086      -0.73306475       4.18266860
Ti       3.45086544       5.87826242       5.24249552
Ti       2.95675935       1.81266406       5.25833385
Ti       2.41180919      -0.94418692       5.75168550
Ti       5.76221097       1.47233000       5.73591225
Ti       4.27888699       3.77127908       6.94220388
Ti       5.14468954      -1.07958068       6.95766957
Ti       6.92566595       3.59898077       7.82986808
Ti       3.67215963       1.12664914       7.84570360
Ti       6.37842086       0.89043024       8.58978294
Ti       1.60017568      -0.70143457       8.60490884
Ti       4.79205510       3.18006270       9.65821783
Ti       4.37575295      -0.93091259       9.67417338
Ti       3.17482835       5.40796456      10.44906416
Ti       2.68613971       1.33945551      10.46507859
Ti       5.89568719       5.19244414      11.40101787
Ti       5.56643402       1.03198596      11.41756877
Ti       0.58642777       0.90532383      12.33782825
Ti       3.85116857       3.37225899      12.32145980
Ti       3.30142587       0.64169911      13.14419060
Ti       6.69320084       3.03472037      13.12872432
Ti       5.08316413       5.34950419      14.23528080
Ti       6.11025687       0.40806344      14.25077152
Ti       4.53657112       2.62837159      14.92762040
Ti       4.02633803      -1.42826771      14.94497432
Ti       7.15714832       2.49957095      15.86437359
Ti       2.60360445       0.77897120      15.88086106
Ti       5.73519831       4.78971418      17.10755457
Ti       5.29541580       0.69220380      17.12318218
Ti       3.60945403       2.93624450      17.51796666
Ti       0.32850140       0.47944961      17.53726024
Ti       2.87283656       0.50824626      18.67040575
Ti       6.78589135       2.59945888      18.65561331
Ti       4.91591222       5.19997989      19.97934926
Ti       1.63246387       2.74880255      19.99577658
Ti       4.38216924       2.41254625      20.14796412
Ti       3.91126678      -1.66478280      20.16169748
Ti       6.87217106       2.51542621      21.44026939
Ti       2.74632828       0.54654000      21.45307186
Ti       3.56506211       2.87073564      22.81681452
Ti       0.27654342       0.42002197      22.82522910
Ti       5.71695707       4.72771972      22.84062443
Ti       5.23133965       0.64863975      22.84952546
Ti       2.71640459       0.56219859      24.23574992
Ti       6.87329121       2.50186149      24.20633156
Ti       3.90856944      -1.64088742      25.45775921
Ti       4.31059576       2.42091592      25.47570177
Ti       1.57742643       2.72463685      25.70615728
Ti       4.93036559       5.22494889      25.70011230
Ti       2.91753419       0.48022093      27.06440673
Zr       6.71774277       2.66164007      27.11343659
Ti       0.38007104       0.61662124      28.14949703
Ti       3.59308489       2.88792907      28.16811283
Ti       5.28885012       0.67858364      28.73541164
Ti       5.64141295       4.90560448      28.72363645
Ti       7.31036863       2.44627283      29.93280465
Ti       2.60230360       0.86654082      29.90635410
Ti       4.64169748       2.75916717      30.71598264
Ti       4.05781934      -1.39593268      30.76239886
Ti       6.11511924       0.46552150      31.56637614
Ti       5.16145883       5.42935266      31.58346863
Ti       3.42613203       0.68758465      32.61322215
Ti       6.72919790       3.11421815      32.59901836
Ti       3.92599477       3.42832712      33.36521234
Ti       0.63613935       1.01962864      33.40614466
Ti       5.95379993       5.24801933      34.38410881
Ti       5.64439681       1.11263395      34.40311694
Ti       3.26802005       5.48942669      35.23391613
Ti       2.74818484       1.41803476      35.26049761
Ti       4.79253460       3.27862565      36.07795638
Ti       4.47806682      -0.88352972      36.09397737
Ti       2.01160436       3.48520783      37.24071404
Ti       1.63462729      -0.63549279      37.24249930
Ti       6.98756540       3.67175048      37.83282254
Ti       3.72615150       1.21124857      37.85646233
Ti       4.39162663       3.77092184      38.82974334
Ti       5.09779674      -0.99361286      38.84818873
Ti       5.75948323       1.50358228      40.10780816
Ti       2.44545178      -0.93359000      40.12039786
Ti       3.46396450       5.91427832      40.43545710
Ti       2.98507536       1.84311699      40.45100461
Ti       4.69289055       3.70348740      41.62301786
Ti       4.87837963      -0.75567526      41.63877374
Ti       2.15283313       3.64563738      42.95963536
Ti       1.67330263      -0.42789238      42.97524663
Ti       7.11441459       3.87376025      43.07859055
Ti       3.81721013       1.42805101      43.09568673
Ti       4.62336895       3.77521048      44.39619182
Ti       4.97562263      -0.78030228      44.41263656
Ti       3.49206951       5.98075261      45.75239442
Ti       3.02521678       1.90013723      -0.01312193
