100
Lattice="4.4265 -2.555641 0.0 3.767997 6.526363 -0.031456 0.0 0.0 45.781652" Properties=species:S:1:pos:R:3:forces:R:3 job_name=CSL13-Zn-Zn-48-d-0.01 GB_type=CSL13 element=Zn system=Zn-48-d-0.01 distance=0.01 energy=-768.25229424 stress_kbar_3x3="_JSON [[-35.85959498, -2.18497029, 0.82015047], [-2.18497036, -39.19744434, 2.63336576], [0.8201505, 2.63336578, -18.32622835]]" pbc="T T T"
Ti       2.39531927      -1.03896035       0.06380006      -0.00132303      -0.00428939       0.00114242
Ti       5.69754093       1.40587290       0.04898760      -0.00465075      -0.00406719       0.00046216
Ti       4.92780341      -0.95062832       1.39332950      -0.00156116       0.00138949       0.00107302
Ti       4.51187726       3.64140741       1.37814499       0.00149501      -0.00025223      -0.00070325
Ti       7.03840986       3.72516327       2.62313141      -0.00245590      -0.00161176      -0.00035065
Ti       3.74128782       1.27777583       2.63746952      -0.00041008      -0.00198742      -0.00029009
Ti       1.60647717      -0.57418725       2.89312546       0.00196079       0.00053461      -0.00010973
Ti       2.07445530       3.50531127       2.87642027      -0.00147338       0.00326516      -0.00016882
Ti       4.67388384       3.53681655       4.16829194       0.00183383      -0.00246470      -0.00246249
Ti       4.76301510      -0.86555832       4.18553755      -0.00427112       0.00120484      -0.00494813
Ti       3.39503129       5.76285881       5.25316973      -0.00018848      -0.00128105      -0.01330472
Ti       2.90670000       1.69510513       5.26835637      -0.00072799       0.00008655      -0.01258142
Ti       2.35747424      -1.05300072       5.75411250      -0.00254123      -0.00094174       0.00401653
Ti       5.71693177       1.35887001       5.73808851      -0.00171552      -0.00067352       0.00429264
Ti       4.25372290       3.67541188       6.95952229      -0.00664833      -0.00159722       0.00390134
Ti       5.09971825      -1.16238770       6.97567383       0.00117989      -0.00654871       0.00576870
Ti       6.90334568       3.51623839       7.85066021      -0.00271593      -0.00455754       0.00463601
Ti       3.63318590       1.05102622       7.86422415      -0.00369857      -0.00314261       0.00343973
Ti       6.34353800       0.82785354       8.61089852      -0.00350375      -0.00329288       0.00738248
Ti       1.58379879      -0.77917466       8.62597491      -0.00372566      -0.00309311       0.00796902
Ti       4.77868836       3.11374338       9.68395562      -0.00109496      -0.00895886      -0.00173337
Ti       4.35037649      -0.98704484       9.69878148      -0.00834076      -0.00547208      -0.00353183
Ti       3.14788654       5.35167667      10.47447497      -0.00644129      -0.00210054      -0.00329404
Ti       2.66979105       1.27582383      10.48936432       0.00074419      -0.00620131      -0.00209521
Ti       5.87746447       5.14690879      11.46567848      -0.00274444      -0.00892217      -0.00045560
Ti       5.55611875       0.97306841      11.48838187      -0.00525125      -0.00364043       0.00113779
Ti       0.56827790       0.84897855      12.35415534      -0.00327420      -0.00546263      -0.00886277
Ti       3.83332808       3.32779917      12.33870507      -0.00340967      -0.00747680      -0.00416692
Ti       3.25645539       0.62296865      13.18483697      -0.00827434       0.00243537       0.00054182
Ti       6.70389129       2.97658090      13.16839702      -0.00266980      -0.01054063      -0.00656653
Ti       5.07901316       5.32129038      14.34852368      -0.00619682      -0.00067669       0.00189917
Ti       1.69097373       2.93442997      14.36888567       0.00010350      -0.01160191       0.00703742
Ti       4.51084699       2.57425984      14.92274687      -0.00610092      -0.01119824      -0.00143821
Ti       4.01802617      -1.47184074      14.94662792       0.00771217       0.00316064       0.00900687
Ti       7.08625895       2.53798551      15.93391598      -0.00914770      -0.00810377       0.01069918
Ti       2.67459329       0.72513502      15.95570016      -0.00044968      -0.00421584       0.00141731
Ti       5.79190936       4.77699977      17.27435643       0.00164703      -0.00301794       0.00134001
Ti       5.27519441       0.73583563      17.31494198      -0.00171759      -0.00477448      -0.00035810
Ti       3.59571155       2.93717012      17.50001292       0.00197355      -0.00288373       0.00137805
Ti       0.33786115       0.46802483      17.52136240      -0.00183842       0.00565408      -0.00164660
Ti       2.81029248       0.54954865      18.80038204       0.00344798      -0.00296223       0.00377021
Ti       6.87886210       2.54837431      18.78161915      -0.00242687      -0.00381216       0.00326711
Ti       4.90329364       5.17715253      20.25301881       0.00231257      -0.00653680       0.00386112
Ti       1.70943891       2.74047540      20.19289874       0.00538701      -0.00216277       0.00505340
Ti       4.46318119       2.32699010      20.04230528      -0.00560679       0.00225295      -0.00294068
Ti       3.91467626      -1.65762304      20.10045604       0.00069736      -0.00426286      -0.00267284
Ti       6.73682142       2.59420109      21.65312524      -0.00198093      -0.00608619       0.00013721
Ti       2.87828916       0.44487954      21.64785239       0.00911247       0.00146098       0.00431800
Zn       3.65160199       2.91238881      22.50344615      -0.00027009       0.00119890      -0.00102211
Ti       0.30070049       0.48958659      22.64739695       0.00198839       0.00652317      -0.00473839
Ti       5.58679022       4.81731954      23.16676756       0.00363606       0.00031748       0.00550018
Ti       5.39985349       0.56078419      23.14075747       0.00697894      -0.00284392       0.00070264
Ti       2.46307852       0.86099156      24.38852639      -0.00016233       0.00925792       0.00377934
Ti       2.84707715       4.86216240      24.41617105       0.00097892      -0.00191542      -0.00256208
Ti       3.97789037      -1.43281949      25.17535588       0.00618093       0.00682459       0.00001722
Ti       4.60491922       2.66407661      25.02280785      -0.00079480      -0.00382174       0.00229911
Ti       5.94394985       0.44036145      26.06870164       0.00314560      -0.00000397       0.00353713
Ti       5.06714605       5.27033903      25.99556128       0.00581479       0.00955373       0.00579421
Ti       3.26946252       0.55804725      27.07652155       0.00153404       0.00005648      -0.00374575
Ti       6.58505513       3.02734849      27.06170088       0.00179270       0.00893190       0.00422028
Ti       4.90937176      -1.68269679      27.83281055       0.00156781       0.00701821      -0.00327071
Ti       3.82346294       3.28393381      27.72968160       0.00570221       0.00751190       0.00257468
Ti       5.49054654       0.92882139      28.88464488       0.00362218       0.00850751       0.00189848
Ti       5.77726108       5.10085880      28.85659556       0.00084658       0.00635215       0.00026013
Ti       3.11084943       5.29092216      29.69518288       0.00439107       0.00167677      -0.00000198
Ti       2.58510585       1.25559318      29.70021807      -0.00080816       0.00662252      -0.00016980
Ti       4.62581909       3.08955923      30.50806029       0.00167069       0.01170720       0.00065186
Ti       4.33453943      -1.10375187      30.54445895       0.00699791       0.00654485      -0.00173677
Ti       6.27139085       0.70694507      31.70534746       0.00430365       0.00443332       0.00326930
Ti       5.22608919       5.65847181      31.68521519       0.00024815       0.00556695       0.00091700
Ti       3.56156801       0.97574208      32.30115291       0.00170690       0.00573764      -0.00667803
Ti       6.81912029       3.44562459      32.29210616      -0.00025486       0.00224925      -0.00546046
Ti       4.22755851       3.52008256      33.29169802       0.00738110       0.00223369      -0.00545360
Ti       4.92790498      -1.23281921      33.31084984      -0.00116169       0.00894399      -0.00514912
Ti       2.28287397      -1.18777434      34.56975376       0.00396959       0.00072966       0.00472224
Ti       5.59537856       1.25109257      34.55593070      -0.00558855       0.00584875       0.00525407
Ti       3.30264608       5.65863791      34.90412921      -0.00226522       0.00570485       0.00263235
Ti       2.82106115       1.58485827      34.91930714       0.00626418       0.00458388       0.00017401
Ti       4.54744850       3.44519485      36.08840673       0.00062167       0.00026470      -0.00009764
Ti       4.71009856      -0.99989298      36.10554935       0.00202507       0.00079913       0.00187230
Ti       2.00040833       3.40830688      37.39413617       0.00285256       0.00417047       0.00200015
Ti       1.52927768      -0.67101757      37.40989319       0.00107577       0.00312745       0.00268579
Ti       6.96670512       3.63019009      37.57591925       0.00004921       0.00053149      -0.00732093
Ti       3.66540022       1.18673967      37.59167715      -0.00031981       0.00133749      -0.00905218
Ti       4.46029312       3.56076062      38.86277539       0.00245928       0.00049428       0.00001188
Ti       4.86096358      -1.02130585      38.87850394      -0.00075731       0.00284099      -0.00117647
Ti       5.65718198       1.35351644      40.21204829      -0.00235054      -0.00374204      -0.00119210
Ti       2.35385551      -1.08944196      40.22702873      -0.00085496      -0.00421693      -0.00223888
Ti       3.35713453       5.76998417      40.28277262       0.00302097       0.00147431      -0.00408859
Ti       2.90194564       1.68221022      40.29957822       0.00054564       0.00411830      -0.00377453
Ti       4.53184841       3.56957361      41.62907668       0.00073788      -0.00260576      -0.00656215
Ti       4.83883556      -0.95990038      41.64450407      -0.00156351       0.00141111      -0.00397892
Ti       2.04593166       3.48266292      43.01943921       0.00163380       0.00294614       0.00064986
Ti       1.58469116      -0.60195293      43.03610846       0.00185432       0.00258118       0.00099462
Ti       7.02353751       3.69700958      42.99921608      -0.00075853      -0.00265014      -0.00097324
Ti       3.70800623       1.26041889      43.01391623      -0.00116989      -0.00168363      -0.00110376
Ti       4.55370130       3.59393013      44.38844064       0.00019227      -0.00350945       0.00483991
Ti       4.85830171      -0.93197808      44.40459929      -0.00316327       0.00006798       0.00263844
Ti       3.39985213       5.81839175      45.71254190       0.00216581       0.00254762      -0.00302894
Ti       2.93909443       1.73336720      45.72919397       0.00125681       0.00307054      -0.00358672
