100
Lattice="4.4265 -2.555641 0.0 3.767997 6.526363 -0.031456 0.0 0.0 45.781652" Properties=species:S:1:pos:R:3:forces:R:3 job_name=CSL13-V-V-63-d-5.77 GB_type=CSL13 element=V system=V-63-d-5.77 distance=5.77 energy=-775.33452233 stress_kbar_3x3="_JSON [[-37.0068565, -1.48991166, 0.11648621], [-1.48991168, -40.57219566, 0.68794083], [0.11648628, 0.68794078, -18.23615919]]" pbc="T T T"
Ti       2.48827021      -0.87965557       0.01718483      -0.00478909      -0.00512579      -0.00249038
Ti       5.78028821       1.57069124       0.00166689      -0.00182754      -0.00664771      -0.00260836
Ti       5.00229713      -0.78820577       1.38287745      -0.00035152      -0.00449021      -0.00709630
Ti       4.60220783       3.79343944       1.36713333      -0.00334573      -0.00270699      -0.00635792
Ti       7.11280389       3.87789662       2.62353059       0.00199963      -0.00732201       0.00053661
Ti       3.82005509       1.42814619       2.63909880      -0.00729323      -0.00224084       0.00054710
Ti       1.67409443      -0.42610617       2.87758562      -0.00410390       0.00331966      -0.00355536
Ti       2.15353685       3.64814011       2.86192718       0.00494890      -0.00175919      -0.00355847
Ti       4.74178246       3.66593657       4.16382331      -0.00483854      -0.00254874       0.00440591
Ti       4.82186557      -0.73116511       4.17955325       0.00014372      -0.00540580       0.00486977
Ti       3.45188255       5.88145083       5.24665056      -0.00071512      -0.00220631      -0.00229279
Ti       2.95896961       1.81520568       5.26236132      -0.00100156      -0.00221629      -0.00225290
Ti       2.41364464      -0.94355397       5.75694178       0.00006391      -0.00345353      -0.00108664
Ti       5.76191769       1.47421787       5.74119429      -0.00277992      -0.00211887      -0.00112576
Ti       4.28034237       3.77117671       6.95060303      -0.00065945      -0.00211010       0.00051636
Ti       5.14375842      -1.07826603       6.96632843      -0.00172799      -0.00162949       0.00097928
Ti       6.92819286       3.59827790       7.84609665      -0.00131113      -0.00103834      -0.00083866
Ti       3.67008561       1.12847165       7.86172166       0.00023085      -0.00244309      -0.00136886
Ti       6.37827596       0.89095893       8.60837110      -0.00191173      -0.00195664       0.00140933
Ti       1.60042709      -0.70156314       8.62435198      -0.00060963      -0.00280551       0.00114207
Ti       4.79097780       3.17987572       9.67818107       0.00083932      -0.00243718       0.00164602
Ti       4.37638817      -0.93159648       9.69380046      -0.00281223      -0.00059253       0.00096989
Ti       3.17269755       5.40865847      10.47608775      -0.00042220       0.00018032      -0.00265792
Ti       2.68945271       1.33667011      10.49158972      -0.00034143       0.00007197      -0.00182899
Ti       5.89580254       5.19233526      11.43560969      -0.00094570      -0.00016428       0.00109681
Ti       5.56709342       1.03117080      11.45133401       0.00060915       0.00011444       0.00156644
Ti       0.58480359       0.90636147      12.36639633      -0.00002472      -0.00046870       0.00220164
Ti       3.85184847       3.37085983      12.35084139       0.00092208      -0.00154410       0.00344070
Ti       3.29557871       0.64683782      13.18261339       0.00306407       0.00125729       0.00099453
Ti       6.69819291       3.03308164      13.16690284      -0.00173269       0.00184426       0.00018346
Ti       5.08356415       5.35293343      14.28167801      -0.00107422       0.00011727      -0.00046943
Ti       6.11124770       0.40782805      14.29817682      -0.00049577       0.00154753      -0.00138618
Ti       4.53240918       2.62809866      14.96478409       0.00213914      -0.00028546       0.00097260
Ti       4.02708850      -1.43137107      14.98026976      -0.00234969       0.00198471       0.00121183
Ti       7.15014096       2.50542085      15.91394201      -0.00046082       0.00126283      -0.00218525
Ti       2.61160880       0.77362087      15.92988426       0.00201685       0.00022611      -0.00177303
Ti       5.73839474       4.78518674      17.16546133       0.00379106      -0.00064013      -0.00225034
Ti       5.28993383       0.69361206      17.18113515      -0.00168134       0.00206366      -0.00385078
Ti       3.60460754       2.93128413      17.56566839       0.00449932       0.00224100       0.00081008
Ti       0.32503624       0.47458455      17.58099713      -0.00034655       0.00524496       0.00274173
Ti       2.86406847       0.50415448      18.72951496       0.00444318       0.00395771      -0.00966219
Ti       6.78925248       2.59233007      18.71329759       0.00026486       0.00849455      -0.00030434
Ti       4.91449769       5.19672033      20.03969291       0.00141825       0.00405626      -0.00426545
Ti       1.63030947       2.74109111      20.05322377       0.00334138       0.00860297      -0.00028163
Ti       4.38300088       2.40661416      20.20462667       0.00624623       0.01505115       0.00159304
Ti       3.90751597      -1.66829424      20.22257574       0.01010638       0.00464365       0.00055750
Ti       6.87772660       2.51498762      21.50301510       0.00595070       0.00709973      -0.00795010
Ti       2.74508698       0.54433046      21.52072496      -0.00113571       0.00711307       0.00756733
Ti       3.58107442       2.87177766      22.87890037       0.00370455       0.00381937       0.00229354
Ti       0.28041094       0.42728814      22.90907121       0.00994799       0.00953546      -0.00073005
Ti       5.72337770       4.73416844      22.89618484      -0.00288576       0.00746890      -0.00239715
Ti       5.24444500       0.65304181      22.90313371       0.00160848       0.00572094       0.00330637
Ti       2.74247582       0.56647947      24.30051977       0.00363798       0.00289841      -0.00327968
Ti       6.90544575       2.52651387      24.27803433       0.00911132       0.00270572       0.01245968
Ti       3.92557261      -1.63172870      25.61080099       0.00971406       0.00346404      -0.00567817
Ti       4.38786285       2.44289592      25.52379116       0.00816445       0.00247192       0.00937730
Ti       1.64513918       2.77689022      25.77310054       0.01198938      -0.00011482      -0.00311674
Ti       4.93921083       5.22225065      25.75850985      -0.00868076       0.00033969      -0.00266047
Ti       2.92623182       0.55214446      27.09240213      -0.00091302      -0.00102920      -0.00373128
Ti       6.74654656       2.66727092      27.05919239       0.00682014      -0.00228097      -0.00556553
Ti       0.35728754       0.42692965      28.20312472       0.00740517       0.01719255       0.00496898
Ti       3.79714982       3.11505091      28.18864613      -0.00585086      -0.00869178      -0.00332015
Ti       5.37806327       0.65505876      28.62964031      -0.00076053       0.00426665      -0.00232984
V        5.84838882       4.90089980      28.52955637      -0.00999044      -0.00136403      -0.00035746
Ti       7.12775904       2.57222998      29.83844216       0.00387096       0.00057123       0.00806605
Ti       2.60195062       0.82237495      29.82752034       0.00650850      -0.00118218       0.00163791
Ti       4.54333541       2.63501383      30.76084661       0.00091428       0.00859672       0.00134167
Ti       4.06445740      -1.35134342      30.74912059      -0.00537711      -0.00357185       0.00723365
Ti       6.14944701       0.46016865      31.49160664       0.00137083      -0.00114958      -0.00369245
Ti       5.13328162       5.35280607      31.32558426      -0.00243641       0.00645171       0.00522183
Ti       3.30842909       0.66857297      32.55540961       0.00869549       0.00198973       0.00378490
Ti       6.69716840       3.10545536      32.55496372       0.00450257       0.00085250       0.00167923
Ti       3.90074974       3.44143993      33.35762553      -0.00741220       0.00005837      -0.01187634
Ti       0.60649694       0.93412314      33.36060708      -0.00076242       0.00246442      -0.00238366
Ti       5.91321677       5.25834831      34.27919531       0.00065170       0.00117292       0.00255435
Ti       5.59100864       1.07748168      34.31032288       0.00218298      -0.00244116      -0.00016328
Ti       3.20258152       5.46791604      35.22397621      -0.00031304      -0.00401612       0.00683821
Ti       2.70665713       1.40978055      35.21686819       0.00159612       0.00025659       0.00767053
Ti       4.80095854       3.24932577      36.02842915       0.00049400      -0.00281781       0.00345653
Ti       4.43194574      -0.88239442      36.04673990      -0.00659951      -0.00211823       0.00103922
Ti       6.41173463       0.93915984      37.16219064      -0.00512024       0.00001996      -0.00326308
Ti       1.62607265      -0.64248655      37.18411733      -0.00224177      -0.00437894      -0.00182860
Ti       6.97013089       3.66597338      37.82010445      -0.00822016      -0.00099467       0.00146090
Ti       3.70306794       1.20322912      37.82345602      -0.00241325      -0.00700898       0.00047228
Ti       4.35940202       3.78533827      38.77672334      -0.00399069      -0.00411627      -0.00494024
Ti       5.10787908      -0.99784397      38.79329335      -0.00045899      -0.00137293      -0.00106759
Ti       5.75970147       1.50433833      40.05268702      -0.00570309      -0.00242022      -0.00151466
Ti       2.43986330      -0.92852648      40.06841889      -0.00133964      -0.00525469       0.00004880
Ti       3.46726975       5.91665697      40.41109346      -0.00387070      -0.00215792       0.00315126
Ti       2.98145574       1.84704455      40.42323384      -0.00207656      -0.00510462       0.00400658
Ti       4.70139160       3.70239932      41.58146653      -0.00400651      -0.00602387      -0.00580828
Ti       4.87604845      -0.74839753      41.59833708      -0.00419905      -0.00408743      -0.00630006
Ti       2.15601215       3.64886321      42.92501253       0.00461555       0.00144323      -0.00062652
Ti       1.67391311      -0.42434539      42.94004799      -0.00152644       0.00395469       0.00028132
Ti       7.11742965       3.88036398      43.05225711      -0.00403125      -0.01063602      -0.00011714
Ti       3.82008913       1.43328359      43.06505581      -0.00813478      -0.00485448       0.00023701
Ti       4.62642486       3.77895027      44.37079250      -0.00317257      -0.00134331       0.00646689
Ti       4.97787706      -0.77405542      44.38628814       0.00190650      -0.00568090       0.00967138
Ti       3.49491415       5.98601466      45.73332752       0.00197507      -0.00418807      -0.00073701
Ti       3.02829289       1.90471084      45.74831162      -0.00485013      -0.00145193       0.00029707
