100
Lattice="4.4265 -2.555641 0.0 3.767997 6.526363 -0.031456 0.0 0.0 45.781652" Properties=species:S:1:pos:R:3:forces:R:3 job_name=CSL13-Cu-Cu-53-d-1.39 GB_type=CSL13 element=Cu system=Cu-53-d-1.39 distance=1.39 energy=-770.39364637 stress_kbar_3x3="_JSON [[-37.0098114, -2.9456627, 1.21829282], [-2.94566274, -39.80451146, 1.62339265], [1.21829287, 1.62339265, -22.03542552]]" pbc="T T T"
Ti       2.47595715      -0.89658067       0.01512218      -0.00276950      -0.00634471       0.00053321
Ti       5.77100348       1.55218889      -0.00071040      -0.00502577      -0.00494399       0.00124563
Ti       4.98841459      -0.80433710       1.38376343      -0.00431492      -0.00451199      -0.00011579
Ti       4.59447016       3.77401892       1.36805050      -0.00194767      -0.00640247      -0.00032255
Ti       7.10384095       3.86106542       2.63725532      -0.00171069      -0.00279541       0.00294517
Ti       3.80920754       1.41240005       2.65297285      -0.00208583      -0.00278772       0.00294343
Ti       1.66308982      -0.44308120       2.87744777      -0.00248305      -0.00436347      -0.00049056
Ti       2.14347598       3.63039832       2.86189760      -0.00228665      -0.00430124      -0.00048395
Ti       4.72225540       3.65725962       4.16935907      -0.00760758      -0.00268048      -0.00077872
Ti       4.82319886      -0.75210245       4.18520399       0.00093269      -0.00774795      -0.00126363
Ti       3.44621840       5.87458306       5.27589749      -0.00243537      -0.00260112       0.00056867
Ti       2.95476523       1.80720019       5.29121441      -0.00116833      -0.00389954       0.00198893
Ti       2.41182724      -0.95728831       5.76201475      -0.00419205      -0.00338259      -0.00149172
Ti       5.74997072       1.46631405       5.74632048      -0.00072901      -0.00560389      -0.00148627
Ti       4.29186980       3.75879446       6.96873355      -0.00110958      -0.00303079      -0.00073096
Ti       5.12609247      -1.07335429       6.98506623      -0.00347064      -0.00228345      -0.00136931
Ti       6.93118234       3.60218967       7.88489192       0.00135865      -0.00212095      -0.00345054
Ti       3.67059067       1.13396585       7.90048648      -0.00307329      -0.00060641      -0.00184968
Ti       6.38020445       0.89035835       8.62631066      -0.00212510      -0.00171892      -0.00478078
Ti       1.59708297      -0.69895670       8.64097026      -0.00130253      -0.00160564      -0.00388944
Ti       4.78489335       3.19014528       9.71120563      -0.00140576      -0.00119381      -0.00758147
Ti       4.38545962      -0.93067457       9.72757941      -0.00086020       0.00050231      -0.00572928
Ti       3.17829218       5.41603059      10.51770735      -0.00027440       0.00106377      -0.00439132
Ti       2.68912742       1.34710365      10.53241933      -0.00013717      -0.00036447      -0.00487661
Ti       5.89634827       5.20185247      11.45975035      -0.00154584       0.00379873      -0.00472281
Ti       5.56999781       1.03952697      11.47541135      -0.00013907      -0.00035308      -0.00522209
Ti       0.58520978       0.92064120      12.41490863      -0.00091810       0.00258815      -0.00509199
Ti       3.85740333       3.37997506      12.39523293      -0.00230010      -0.00031020      -0.00274072
Ti       3.30595151       0.65110672      13.22312360      -0.00069206       0.00212461       0.00127954
Ti       6.69081992       3.04794693      13.20766336      -0.00187141       0.00197078      -0.00026797
Ti       5.08337963       5.35809344      14.30503985       0.00194098       0.00288551      -0.00355549
Ti       6.10637594       0.41924530      14.32571249       0.00063419      -0.00108613      -0.00523661
Ti       4.53220189       2.64144585      15.01866182      -0.00209169      -0.00046118      -0.00096170
Ti       4.02691079      -1.41583061      15.03873111       0.00142037       0.00084859       0.00332582
Ti       7.15822119       2.50494928      15.95778008       0.00455245       0.00485188      -0.00125093
Ti       2.58781358       0.78872819      15.96713422      -0.00294685       0.00503263      -0.00213316
Ti       5.71715351       4.78621650      17.18399105      -0.00607506       0.00268002       0.00441121
Ti       5.29130515       0.69222908      17.20977203       0.00577710       0.00192189      -0.00033279
Ti       3.59682117       2.93272402      17.61858020       0.00482106       0.00379869       0.00039136
Ti       0.31624010       0.47987702      17.64655430       0.00694337       0.00184835      -0.00235183
Ti       2.87004944       0.49038469      18.75524899      -0.00323100       0.00429453      -0.00585181
Ti       6.76693017       2.60044961      18.75907062       0.00276942      -0.00044059       0.00003730
Ti       4.88501621       5.18676863      20.07904302       0.00215005      -0.00020784      -0.00733139
Ti       1.62740689       2.75799059      20.10619679       0.00283217       0.00256819      -0.00032389
Ti       4.38600519       2.41390293      20.27153011      -0.00475906      -0.00144235      -0.00023093
Ti       3.88740407      -1.68244400      20.29806786       0.00464647       0.00090444      -0.00703029
Ti       6.86212438       2.51120461      21.56403478      -0.00838061      -0.00690932      -0.00175625
Ti       2.71146336       0.53147834      21.51791591       0.00682539       0.00285034       0.00043752
Ti       3.46518421       2.87260340      22.88757157       0.00028119       0.00275710      -0.01219358
Ti       0.30669023       0.41735251      22.92591988       0.00409812       0.00054248      -0.00400005
Ti       5.72046486       4.68134087      22.92839039       0.00923078       0.00065406      -0.00299802
Ti       5.17324694       0.69504012      22.90833159       0.00115410       0.00645519      -0.00918722
Ti       2.73974661       0.54766440      24.28669336      -0.00164131       0.00236758       0.00284223
Cu       7.03943549       2.44202603      24.26779654       0.00478743       0.00285242       0.00283388
Ti       3.92678893      -1.62713781      25.50939511      -0.00423186       0.00417594       0.00262650
Ti       4.49919584       2.43494014      25.40992569       0.00122927       0.00266941      -0.00155680
Ti       1.72395930       2.72534151      25.76017944      -0.00095242       0.00612230       0.01114557
Ti       4.91590488       5.26530742      25.74429076      -0.00843596      -0.00318298       0.01305784
Ti       2.98283429       0.50528159      27.06239271      -0.00094313      -0.00590278       0.00602411
Ti       6.78159957       2.64135076      26.98711889       0.00267723       0.00426614       0.01016465
Ti       0.37011405       0.49553921      28.07230375       0.00515628       0.00165795       0.00084765
Ti       3.66951521       3.02710143      28.03854199      -0.00292464       0.00238871      -0.00049701
Ti       5.39133142       0.70965118      28.57887011       0.00799600       0.00095544       0.01076713
Ti       5.77130883       4.82780596      28.56657739       0.00087890       0.00794801       0.00755349
Ti       7.24236983       2.54619433      29.77882774       0.01354996       0.00500657       0.00558280
Ti       2.57838034       0.86555145      29.80696422       0.00089228       0.00709740       0.00526483
Ti       4.57979224       2.69397028      30.66431485       0.00735170       0.00622303      -0.00221978
Ti       4.09736491      -1.31902601      30.67235392       0.00345701       0.00850135      -0.00259005
Ti       6.14466500       0.49674943      31.44740159      -0.00266210       0.00947301       0.00167407
Ti       5.14876131       5.39581042      31.42303132       0.00680347       0.00715727      -0.00262789
Ti       3.36670675       0.71060462      32.51818355       0.00509818       0.00729025      -0.00114442
Ti       6.70480562       3.13970918      32.50245635       0.00413182       0.00677924      -0.00312042
Ti       3.92454014       3.46100181      33.29788609       0.00970488       0.00113502       0.00197776
Ti       0.62090257       0.99795848      33.31157259       0.00425442       0.00797476      -0.00517320
Ti       2.16845189      -1.24033439      34.32050627       0.00426701       0.00373107       0.00553297
Ti       5.61288124       1.10809940      34.29866954       0.00143632      -0.00210967       0.00306021
Ti       3.22747815       5.49217209      35.16728792       0.00649297       0.00480290      -0.00193543
Ti       2.72604408       1.44173415      35.17677812       0.00339403       0.00397346      -0.00217600
Ti       4.79183753       3.28297013      35.99792436      -0.00146521       0.00253966       0.00463354
Ti       4.46353499      -0.87952074      36.01432268       0.00688347       0.00014249       0.00335057
Ti       6.41740324       0.94571872      37.15607434       0.00064592      -0.00483398       0.00606412
Ti       1.61440279      -0.63674264      37.17810665      -0.00008267       0.00094209       0.00550348
Ti       6.97539406       3.68019453      37.77095877       0.00060178      -0.00040227       0.00118487
Ti       3.70532654       1.21109874      37.78239115      -0.00133057       0.00057194       0.00701156
Ti       4.37673641       3.76617913      38.76414974      -0.00021919      -0.00378394       0.00893917
Ti       5.08424964      -0.99045771      38.78156752      -0.00306637      -0.00232623       0.00675638
Ti       5.74410703       1.49637266      40.04923829      -0.00358737      -0.00506861       0.00560289
Ti       2.43547773      -0.94446382      40.06698575      -0.00256103      -0.00265149       0.00354018
Ti       3.45766373       5.90748993      40.37774627      -0.00386567      -0.00344657       0.00016960
Ti       2.97404106       1.83585289      40.39274567      -0.00241250      -0.00556001       0.00047805
Ti       4.68056808       3.69358322      41.57652323      -0.00563558      -0.00577102       0.00145638
Ti       4.87323775      -0.76855492      41.59350037      -0.00203863      -0.00752706      -0.00101409
Ti       2.14324753       3.63272020      42.92221019      -0.00316219      -0.00216626       0.00167717
Ti       1.66354296      -0.44174625      42.93818276      -0.00193063      -0.00351164       0.00047244
Ti       7.10699001       3.86327896      43.03840243      -0.00106555      -0.00521721      -0.00280779
Ti       3.80796827       1.41728758      43.05354689      -0.00581634      -0.00319151      -0.00495897
Ti       4.61580248       3.76137012      44.36789245      -0.00130066      -0.00697497      -0.00122427
Ti       4.96654149      -0.79148373      44.38361628      -0.00698034      -0.00365556      -0.00177143
Ti       3.48288371       5.97015543      45.73385796      -0.00339671      -0.00606434      -0.00121319
Ti       3.01965877       1.88660996      45.74975282      -0.00488432      -0.00583790      -0.00201899
