100
Lattice="4.4265 -2.555641 0.0 3.767997 6.526363 -0.031456 0.0 0.0 45.781652" Properties=species:S:1:pos:R:3:forces:R:3 job_name=CSL13-Zn-Zn-52-d-1.39 GB_type=CSL13 element=Zn system=Zn-52-d-1.39 distance=1.39 energy=-768.21931655 stress_kbar_3x3="_JSON [[-35.29448857, -2.83621362, 1.0293731], [-2.83621364, -38.38782209, 1.27961412], [1.02937312, 1.27961406, -19.50346302]]" pbc="T T T"
Ti       2.47094891      -0.90594293       0.01361412      -0.00065783      -0.00274541      -0.00005729
Ti       5.76607351       1.54225839      -0.00216316      -0.00144580      -0.00286800      -0.00046495
Ti       4.98235374      -0.81305963       1.38306004      -0.00178274      -0.00270709       0.00090299
Ti       4.59081287       3.76396253       1.36734773      -0.00127773      -0.00298057       0.00095595
Ti       7.09975694       3.85223998       2.63814243      -0.00153922      -0.00394651       0.00258837
Ti       3.80405574       1.40414132       2.65383603      -0.00229280      -0.00387417       0.00283680
Ti       1.65917154      -0.45139874       2.87419564      -0.00152357      -0.00229011       0.00146257
Ti       2.13877337       3.62264943       2.85821921      -0.00098091      -0.00247655       0.00132843
Ti       4.71601245       3.65202676       4.16614611      -0.00273568      -0.00289222       0.00264515
Ti       4.82240225      -0.76013984       4.18187666      -0.00061854      -0.00473991       0.00199755
Ti       3.44331329       5.86997232       5.27488254      -0.00168355      -0.00292754      -0.00155000
Ti       2.95322040       1.80222898       5.29094330      -0.00083809      -0.00344618      -0.00154186
Ti       2.40941630      -0.96155290       5.75482531      -0.00076244      -0.00325068      -0.00393149
Ti       5.74812121       1.46172023       5.73908684      -0.00281379      -0.00265363      -0.00393336
Ti       4.29453084       3.75509634       6.96405975      -0.00161418      -0.00389984      -0.00386948
Ti       5.12315916      -1.07428617       6.97938075      -0.00207692      -0.00393593      -0.00373204
Ti       6.93183100       3.60196003       7.88042932      -0.00008079      -0.00301175      -0.00265268
Ti       3.67179293       1.13289908       7.89634798      -0.00272952      -0.00107129      -0.00323349
Ti       6.38140247       0.88894523       8.61519317      -0.00128303      -0.00319442      -0.00332385
Ti       1.59753056      -0.70024332       8.63195616      -0.00174521      -0.00267642      -0.00355999
Ti       4.78607798       3.18978795       9.70453830      -0.00141437      -0.00028026      -0.00140564
Ti       4.38857769      -0.93190019       9.71924509       0.00075585      -0.00210252      -0.00192789
Ti       3.18244162       5.41368300      10.50622564      -0.00000758      -0.00040041      -0.00097820
Ti       2.69112900       1.34766512      10.52291980      -0.00026596      -0.00065080      -0.00196970
Ti       5.89942863       5.20008083      11.44524667      -0.00084667      -0.00081174      -0.00219963
Ti       5.57400505       1.03720897      11.46040551       0.00126534      -0.00101284      -0.00136067
Ti       0.58984382       0.91630673      12.40017323      -0.00103307       0.00142099      -0.00029131
Ti       3.86180554       3.37939208      12.38777971       0.00062599       0.00140545      -0.00054460
Ti       3.31240414       0.64586732      13.20809858       0.00082080       0.00297437      -0.00191277
Ti       6.69177964       3.04567811      13.19161470       0.00140650       0.00139459      -0.00177488
Ti       5.09238314       5.35352465      14.29129185       0.00355277       0.00314123      -0.00241283
Ti       6.11057658       0.41191405      14.30316848       0.00134179       0.00546667      -0.00029166
Ti       4.54299927       2.63702788      15.00942745       0.00048626       0.00627234      -0.00008519
Ti       4.03426599      -1.42376382      15.01908936       0.00091712       0.00478451      -0.00247014
Ti       7.17247509       2.49048848      15.93028895       0.00508750       0.00432357      -0.00026588
Ti       2.59975787       0.78545231      15.95202028       0.00200333       0.00610118       0.00111651
Ti       5.72954186       4.79357662      17.17303618       0.00283387       0.00665148       0.00078380
Ti       5.30173038       0.67505742      17.18186448       0.00172631       0.00370748       0.00033994
Ti       3.61429300       2.93537420      17.61260781      -0.00046909       0.00655782      -0.00062620
Ti       0.32529829       0.47491430      17.61499125       0.00367961       0.00365828       0.00153572
Ti       2.87817250       0.50413218      18.74391361       0.00071751       0.00105765      -0.00270708
Ti       6.76850768       2.59938698      18.71260016      -0.00021996       0.00380222      -0.00220644
Ti       4.92352339       5.21878568      20.06195237      -0.00072854       0.00556341      -0.00426206
Ti       1.64187047       2.73102492      20.06892220      -0.00223920       0.00128588      -0.00156333
Ti       4.38712412       2.39899061      20.25889483       0.00070261       0.00096855      -0.00117151
Ti       3.90223779      -1.64196711      20.25718411      -0.00251805       0.00122167      -0.00235460
Ti       6.88807537       2.50375472      21.48515135       0.00023236      -0.00292603      -0.00346670
Ti       2.74763127       0.54801215      21.54978618       0.00133739       0.00210954      -0.00092926
Ti       3.56456584       2.90452967      22.88565641       0.00231206      -0.00502516      -0.00183577
Ti       0.29918242       0.38143274      22.88235463       0.00458427       0.00385898      -0.00274694
Ti       5.76473173       4.71158752      22.86705825       0.00355866       0.00274245      -0.00170819
Ti       5.23300444       0.67388346      22.89337936      -0.00485935      -0.00195712       0.00107539
Zn       2.68497578       0.61535907      24.27620325      -0.00007367       0.00295062       0.00116112
Ti       6.89081539       2.53033276      24.25996383      -0.00038257      -0.00130254       0.00541340
Ti       3.88908744      -1.61299397      25.52402845       0.00138377       0.00363208       0.00126562
Ti       4.42116187       2.47636580      25.50885048      -0.00104630      -0.00077115       0.00407883
Ti       1.67614132       2.80413590      25.76775213       0.00090720      -0.00281876       0.00052111
Ti       4.87704996       5.27490132      25.74894935       0.00177080       0.00646698       0.00029292
Ti       2.91314284       0.54369673      27.00970511      -0.00145003      -0.00077456      -0.00092600
Ti       6.76420963       2.67849981      27.05606299       0.00006947       0.00310854      -0.00390251
Ti       0.39241294       0.55700094      28.11946883       0.00796718       0.00197983      -0.00265184
Ti       3.61642692       2.98316682      28.09225607       0.00182528      -0.00329749      -0.00204043
Ti       5.31634127       0.74214906      28.59080055      -0.00170563       0.00325947       0.00200238
Ti       5.74673625       4.87598073      28.56028951       0.00230180       0.00453597       0.00061050
Ti       7.24126667       2.52408467      29.81559719       0.00367100       0.00298900       0.00423147
Ti       2.63136487       0.85876835      29.82151352       0.00048754       0.00245620      -0.00049656
Ti       4.59873782       2.73163249      30.68775829       0.00472050       0.00494894       0.00146420
Ti       4.06845275      -1.36927997      30.72736713       0.00174273       0.00224351       0.00171758
Ti       6.12398640       0.47869286      31.44821430       0.00292441       0.00557023      -0.00003640
Ti       5.15001750       5.41918265      31.43738679       0.00259250       0.00153676       0.00057095
Ti       3.38448604       0.70104358      32.54484299      -0.00012907       0.00485522       0.00009217
Ti       6.72688566       3.11528405      32.52643689       0.00206581       0.00296622      -0.00233738
Ti       3.91502852       3.44321379      33.31680995       0.00170126       0.00327256      -0.00094628
Ti       0.63697749       1.00266869      33.34305018      -0.00015959       0.00304402       0.00228685
Ti       5.94297611       5.26483418      34.29282782      -0.00083741       0.00066433       0.00050435
Ti       5.63499804       1.10568602      34.31623470      -0.00079001       0.00106205       0.00200024
Ti       3.24692686       5.48414135      35.18598834      -0.00037436       0.00212634       0.00140740
Ti       2.73903975       1.41841476      35.20673419       0.00011777       0.00258406       0.00086813
Ti       4.80285271       3.27183081      36.01285338      -0.00313306       0.00194989       0.00172378
Ti       4.46386463      -0.88163542      36.02951258      -0.00201023       0.00021535       0.00093009
Ti       6.42617242       0.93350005      37.17246595      -0.00126177      -0.00088540       0.00139739
Ti       1.63450590      -0.64660479      37.17978582      -0.00182237      -0.00270468       0.00220872
Ti       6.98285450       3.66428312      37.78738848      -0.00053174      -0.00138362      -0.00057861
Ti       3.71792234       1.20130527      37.80675837      -0.00086747      -0.00090436      -0.00206494
Ti       4.38140063       3.76291857      38.77206591       0.00076682      -0.00303253       0.00051539
Ti       5.09898943      -1.00547938      38.78812234      -0.00378793      -0.00107639       0.00041949
Ti       5.75156325       1.48679550      40.05519409       0.00009421      -0.00221625       0.00250261
Ti       2.43741728      -0.95153190      40.06964386       0.00031074      -0.00490612       0.00361672
Ti       3.45964356       5.89698976      40.39011734      -0.00176128      -0.00235268       0.00296541
Ti       2.97676134       1.82696494      40.40574343      -0.00051757      -0.00533270       0.00323432
Ti       4.68315017       3.68369764      41.58103171       0.00054569      -0.00257316       0.00367947
Ti       4.87043822      -0.77557933      41.59534328      -0.00092227      -0.00335897       0.00446601
Ti       2.14073765       3.62397675      42.92349542      -0.00103734      -0.00197801       0.00398658
Ti       1.66160114      -0.45010945      42.93860917       0.00085551      -0.00263780       0.00397522
Ti       7.10477844       3.85388083      43.04279499      -0.00087325      -0.00556255       0.00221284
Ti       3.80531796       1.40768859      43.05921857      -0.00196437      -0.00478376       0.00465942
Ti       4.61171251       3.75245630      44.36932269      -0.00023936      -0.00400527       0.00066927
Ti       4.96262562      -0.80146345      44.38508825      -0.00118368      -0.00328258       0.00098156
Ti       3.47757577       5.95990856      45.73578864      -0.00310752      -0.00479584      -0.00057279
Ti       3.01446891       1.87666123      45.75140570      -0.00171589      -0.00539622      -0.00032936
