100
Lattice="4.4265 -2.555641 0.0 3.767997 6.526363 -0.031456 0.0 0.0 45.781652" Properties=species:S:1:pos:R:3:forces:R:3 job_name=CSL13-V-V-61-d-5.27 GB_type=CSL13 element=V system=V-61-d-5.27 distance=5.27 energy=-775.55687504 stress_kbar_3x3="_JSON [[-37.05004666, -1.98932441, 0.66158716], [-1.98932443, -40.15364482, 0.4024666], [0.66158718, 0.4024666, -18.58745912]]" pbc="T T T"
Ti       2.48130193      -0.88912290       0.01743571       0.00198454      -0.00140014       0.00239294
Ti       5.77546030       1.55977276       0.00159184      -0.00278465      -0.00023416       0.00271376
Ti       4.99769599      -0.79782514       1.37977517      -0.00566485      -0.00297963       0.00823205
Ti       4.59637993       3.78480777       1.36380662       0.00092604      -0.00662765       0.01006423
Ti       7.10845423       3.86935254       2.62095964      -0.00118512       0.00074511       0.00315748
Ti       3.81475071       1.42013244       2.63684085       0.00206538      -0.00076123       0.00319220
Ti       1.67017064      -0.43432427       2.87518608      -0.00412866      -0.00695614       0.00151234
Ti       2.14830758       3.64059239       2.85922747      -0.00428241      -0.00659440       0.00160286
Ti       4.73592504       3.66041496       4.16179803      -0.00269414      -0.00271710      -0.00143915
Ti       4.82004726      -0.73908307       4.17751144      -0.00114063      -0.00366858      -0.00112568
Ti       3.44831787       5.87779818       5.25020807      -0.00075801      -0.00237158       0.00129976
Ti       2.95764579       1.81019707       5.26593843      -0.00145954      -0.00180763       0.00125795
Ti       2.41181566      -0.94843701       5.75692026      -0.00152194      -0.00512870      -0.00143849
Ti       5.75874419       1.47001824       5.74107980      -0.00364932      -0.00387735      -0.00113859
Ti       4.28208988       3.76660799       6.95211483      -0.00132563      -0.00326341      -0.00013354
Ti       5.13882603      -1.07894632       6.96787656      -0.00224048      -0.00275140       0.00005476
Ti       6.92870509       3.59788746       7.85340298      -0.00187900      -0.00128045      -0.00205028
Ti       3.66948960       1.12870212       7.86903648       0.00016382      -0.00249997      -0.00190614
Ti       6.37814956       0.88887197       8.61217508      -0.00116380      -0.00060760      -0.00470807
Ti       1.59874453      -0.70254571       8.62771914      -0.00047071      -0.00153079      -0.00464956
Ti       4.78898972       3.18154858       9.68523394      -0.00109909       0.00073450      -0.00209418
Ti       4.37872299      -0.93250883       9.70134461       0.00046562      -0.00026414      -0.00264296
Ti       3.17479400       5.40978534      10.48434161       0.00120115       0.00009078      -0.00369242
Ti       2.68879941       1.33924690      10.49983370      -0.00012423       0.00122943      -0.00244052
Ti       5.89508308       5.19579532      11.43683589       0.00009385       0.00184998      -0.00214819
Ti       5.56955042       1.03267084      11.45264569       0.00170312       0.00154436      -0.00290810
Ti       0.58598066       0.91192953      12.37861437       0.00268214       0.00154755      -0.00125783
Ti       3.85543926       3.37492377      12.36200980       0.00053730       0.00329469      -0.00050469
Ti       3.30260649       0.64887777      13.18863579       0.00040433       0.00342141      -0.00066161
Ti       6.69624215       3.04065651      13.17335950       0.00142842       0.00248337      -0.00098647
Ti       5.08979627       5.35644346      14.27905541       0.00116368       0.00441886       0.00276362
Ti       6.11122596       0.41596594      14.29467601       0.00307756       0.00202630       0.00327222
Ti       4.53881936       2.63867308      14.97945058       0.00317732       0.00327588       0.00015857
Ti       4.03300687      -1.41994276      14.99631074       0.00429715       0.00214787      -0.00113360
Ti       7.16590878       2.50800635      15.91685540      -0.00034008       0.00545308       0.00093386
Ti       2.60627059       0.78967284      15.93188261       0.00508248       0.00358886       0.00015385
Ti       5.74108735       4.80080721      17.15541651       0.00161568       0.00059103       0.00193529
Ti       5.30544532       0.70178830      17.17041374       0.00170619       0.00339391       0.00243968
Ti       3.61814630       2.94804242      17.58326550       0.00051801       0.00251276      -0.00310692
Ti       0.33634787       0.49176247      17.59897386       0.00446289       0.00050468       0.00013036
Ti       2.88858358       0.51677655      18.72981876      -0.00063244      -0.00185777       0.00577398
Ti       6.78950220       2.61370029      18.71359268       0.00117317      -0.00049650       0.00114009
Ti       4.93238625       5.21374982      20.02743290       0.00487486       0.00137077      -0.00515393
Ti       1.64186474       2.75809706      20.04194900       0.00021863       0.00452020      -0.00427364
Ti       4.39643865       2.42921925      20.22386614      -0.00202613      -0.00323410      -0.00327021
Ti       3.92538429      -1.65306671      20.23656595      -0.00077698       0.00125938      -0.00068116
Ti       6.90301903       2.51574494      21.50238156      -0.00157526       0.00194797       0.00262423
Ti       2.75982772       0.56739080      21.51993207      -0.00026232       0.00316129      -0.00701225
Ti       3.59329537       2.88402203      22.91668206      -0.00005560       0.00902093       0.00552266
Ti       0.29449392       0.43186901      22.91495409      -0.00506248       0.00604086       0.00343695
Ti       5.73720742       4.73826144      22.87828467       0.00092642       0.00492249      -0.00228778
Ti       5.26240787       0.66073322      22.89650394       0.00091004       0.00286099       0.00166451
Ti       2.76912167       0.56895827      24.29232387       0.00202395       0.00419033       0.00767638
Ti       6.88254304       2.52506877      24.27898916      -0.00225541       0.00347118      -0.00150002
Ti       3.92565420      -1.65520697      25.57107374      -0.00000643       0.00352314       0.00106580
Ti       4.39403856       2.42692753      25.65485906      -0.00002471      -0.00130794       0.00946954
Ti       1.64619874       2.75755982      25.72716773       0.00204925      -0.00152463       0.00146382
Ti       4.93783594       5.21573093      25.71800863      -0.00473331       0.00942945      -0.00055012
Ti       2.88151500       0.53393773      27.08261065       0.00049822       0.00473661       0.00758475
Ti       6.83538796       2.58724205      27.08296719       0.00417346      -0.00059236       0.00604281
Ti       4.73638508      -1.98872435      28.18328334       0.00205254       0.00112786      -0.00549172
V        3.54132398       2.90075233      28.18246864      -0.00281192       0.00085801       0.00187003
Ti       5.30640323       0.76167394      28.56618462       0.00618494       0.00751204      -0.00282464
Ti       5.61043086       4.73758421      28.57876412      -0.00315485       0.00187405      -0.00499762
Ti       7.30389207       2.45650661      29.83818079       0.00352525      -0.00049020      -0.00078569
Ti       2.57731953       0.83865170      29.83725169      -0.00029920       0.00822333      -0.00345419
Ti       4.59746447       2.74104341      30.65682496       0.00381108      -0.00188197      -0.01091611
Ti       4.01689274      -1.38691428      30.72986536       0.00198024       0.00670610      -0.00106446
Ti       6.08788967       0.45650350      31.44982357       0.00676805       0.00661075       0.00256157
Ti       5.13020987       5.42878277      31.50475531       0.00449296      -0.00018617      -0.00694806
Ti       3.39576552       0.69662875      32.54634034       0.00273725       0.00093297      -0.00170766
Ti       6.70050382       3.09823378      32.53320717       0.00495715      -0.00038847       0.00028596
Ti       3.88823037       3.43599274      33.30657391      -0.00167454       0.00728545      -0.00021419
Ti       0.61841677       1.02357581      33.35171109      -0.00163023       0.00176596      -0.00130031
Ti       5.94531267       5.25425127      34.31858078      -0.00018612       0.00080421       0.00190113
Ti       5.63012969       1.11231723      34.33156293       0.00296602      -0.00142725       0.00167341
Ti       3.25441938       5.49853925      35.17192817      -0.00135586      -0.00291704       0.00024938
Ti       2.73315374       1.41710621      35.20714393      -0.00040693       0.00097539       0.00032216
Ti       4.78417447       3.28571672      36.01887181      -0.00058160       0.00041037       0.00182680
Ti       4.46493825      -0.87771246      36.03954919      -0.00184634      -0.00141478       0.00179519
Ti       6.43426116       0.93674721      37.18979575       0.00082336      -0.00246004      -0.00110433
Ti       1.62843658      -0.63603586      37.19274706       0.00017571      -0.00535389       0.00391957
Ti       6.98303501       3.67211319      37.77816563      -0.00208651      -0.00179283       0.00165076
Ti       3.72234198       1.21964399      37.80271941       0.00108359      -0.00569337      -0.00161135
Ti       4.39299171       3.76536374      38.78523991      -0.00172351      -0.00259172       0.00174510
Ti       5.08992219      -0.99119469      38.79797441      -0.00088450      -0.00395982      -0.00293987
Ti       5.75465064       1.49771081      40.06998633      -0.00505621      -0.00323890      -0.00161031
Ti       2.44526817      -0.94440616      40.07964411      -0.00407340      -0.00521730       0.00036798
Ti       3.46526854       5.90949144      40.38705053       0.00018677      -0.00480114      -0.00465550
Ti       2.98197438       1.83621942      40.40318987       0.00312642      -0.00343458      -0.00115998
Ti       4.68425720       3.69668523      41.58793802      -0.00409457      -0.00148765      -0.00019459
Ti       4.87959254      -0.76709120      41.60175698      -0.00113423      -0.00380900       0.00368744
Ti       2.14769399       3.63620685      42.93136354      -0.00196691      -0.00636290      -0.00012296
Ti       1.66828826      -0.43694346      42.94755822      -0.00086161      -0.00445302       0.00016703
Ti       7.11149261       3.86585352      43.03933827       0.00095557       0.00013241       0.00046258
Ti       3.81195226       1.42008869      43.05702824       0.00066188      -0.00018531      -0.00004353
Ti       4.62220555       3.76596945      44.36947846       0.00019866      -0.00460429      -0.00802217
Ti       4.96873170      -0.78583014      44.38539423      -0.00264590      -0.00363426      -0.00399912
Ti       3.48755396       5.97606259      45.72707389      -0.00601448      -0.00388127       0.00330038
Ti       3.02345615       1.89324616      45.74307142      -0.00247933      -0.00852639       0.00354471
