100
Lattice="4.4265 -2.555641 0.0 3.767997 6.526363 -0.031456 0.0 0.0 45.781652" Properties=species:S:1:pos:R:3:forces:R:3 job_name=CSL13-Zr-Zr-57-d-2.88 GB_type=CSL13 element=Zr system=Zr-57-d-2.88 distance=2.88 energy=-775.54427486 stress_kbar_3x3="_JSON [[-30.02587217, -2.07415614, 0.62558519], [-2.07415614, -33.78464408, 1.48645844], [0.62558519, 1.48645845, -12.99308291]]" pbc="T T T"
Ti       2.48083575      -0.89240415       0.03372977      -0.00719340      -0.00041325      -0.00469816
Ti       5.77226220       1.55816758       0.01802352       0.00309515      -0.00611568      -0.00451844
Ti       4.99521515      -0.80128606       1.39202856      -0.00068500      -0.00316267      -0.00131705
Ti       4.59412440       3.78125565       1.37630141      -0.00270698      -0.00296818      -0.00189627
Ti       7.10554852       3.86673087       2.62719941      -0.00306336      -0.00820107       0.00125151
Ti       3.81362791       1.41638677       2.64298305      -0.00523214      -0.00624228       0.00148154
Ti       1.66852361      -0.43610040       2.88200384      -0.00195844      -0.00535433      -0.00165776
Ti       2.14734957       3.63845578       2.86620545      -0.00394539      -0.00483267      -0.00121766
Ti       4.73748127       3.65605469       4.16469214      -0.00449816      -0.00198997       0.00087873
Ti       4.81532130      -0.73996991       4.18029015       0.00004973      -0.00317978       0.00117733
Ti       3.44769096       5.87261444       5.24196433      -0.00315866      -0.00513899       0.00556522
Ti       2.95314348       1.80718477       5.25763464      -0.00271952      -0.00479022       0.00552414
Ti       2.40877349      -0.94988528       5.74964801      -0.00253402      -0.00376402       0.00119265
Ti       5.75860179       1.46690139       5.73396739      -0.00235264      -0.00424079       0.00120094
Ti       4.27732790       3.76642418       6.94206990       0.00082536      -0.00299962       0.00757189
Ti       5.14051844      -1.08287493       6.95778038      -0.00247619      -0.00000768       0.00724225
Ti       6.92347473       3.59740639       7.83249361      -0.00176667      -0.00169011       0.00767247
Ti       3.67086652       1.12409214       7.84812908      -0.00094314      -0.00113092       0.00773947
Ti       6.37602722       0.88851212       8.59001992      -0.00207076       0.00002384       0.00504036
Ti       1.59851885      -0.70422883       8.60546747       0.00117557      -0.00172547       0.00536798
Ti       4.78933036       3.18371880       9.66538247       0.00151643       0.00101764       0.00526061
Ti       4.37982417      -0.93086230       9.68126163       0.00117117       0.00045274       0.00715585
Ti       3.17836300       5.41241127      10.45568990       0.00117983       0.00003974       0.00363249
Ti       2.68890494       1.34437538      10.47180503      -0.00093831       0.00014378       0.00312472
Ti       5.89638886       5.20275641      11.40359874      -0.00053012       0.00042984       0.00753997
Ti       5.57444766       1.03747011      11.42036947      -0.00030227      -0.00020157       0.00625357
Ti       0.59090543       0.91903807      12.35372648       0.00074804      -0.00185223       0.00692539
Ti       3.85907000       3.38293782      12.33684241       0.00033700       0.00268591       0.00333838
Ti       3.31140527       0.65312334      13.15418915      -0.00165168      -0.00353916      -0.00077973
Ti       6.69487191       3.05002314      13.13802438       0.00016054       0.00106683       0.00082443
Ti       5.09388241       5.36075516      14.23694108       0.00245364      -0.00248730       0.00005492
Ti       6.11448818       0.42090289      14.25338450       0.00120394      -0.00044430      -0.00054688
Ti       4.54508364       2.64152343      14.95059710       0.00353665      -0.00164978      -0.00514869
Ti       4.03506124      -1.41093554      14.97045533      -0.00087034       0.00258274      -0.00611615
Ti       7.17521604       2.50006948      15.87496112      -0.00181347       0.00085388      -0.00740379
Ti       2.59490549       0.79526540      15.88917552       0.00131386      -0.00154196      -0.00404868
Ti       5.73494515       4.78889341      17.10356870       0.00378440       0.00724787      -0.00428434
Ti       5.30247428       0.68976280      17.12129692      -0.00018965       0.00025302      -0.00434288
Ti       3.61289758       2.93809112      17.54437868       0.00543275       0.00517398      -0.00272858
Ti       0.33326820       0.47914062      17.56596107       0.00464784       0.00634297      -0.00363841
Ti       2.88896478       0.49476961      18.67439585       0.00199199       0.00179278      -0.00039820
Ti       6.77646991       2.59821401      18.66307515      -0.00080857       0.00341026      -0.00074238
Ti       4.92015424       5.19015764      19.96585824       0.00639666       0.00405660      -0.00259091
Ti       1.63435542       2.73760476      19.98754566      -0.00320989       0.00293105      -0.00319798
Ti       4.38988614       2.40394646      20.17420734       0.00312972       0.00754470      -0.00545428
Ti       3.91239625      -1.67328606      20.19511286       0.00318207       0.00304645      -0.00358052
Ti       6.89535401       2.48210371      21.45251548       0.00414113       0.01078371      -0.00703364
Ti       2.74808743       0.55164744      21.45986136      -0.00398903      -0.00853543      -0.01215509
Ti       3.58696256       2.86712332      22.85531424       0.00125598       0.00265534      -0.00242588
Ti       0.28225635       0.39665491      22.86203920      -0.00700223       0.00760604      -0.00330642
Ti       5.74470537       4.71605795      22.77198192      -0.00461025      -0.00297198      -0.00588088
Ti       5.24964713       0.62998905      22.84707850       0.00051805       0.00482509      -0.00333785
Ti       2.75410797       0.54446479      24.21778881       0.00745213      -0.00244041       0.00173141
Ti       6.83957926       2.49871383      24.24399760       0.00903129       0.00333980       0.00212617
Ti       3.96754565      -1.61202028      25.53302661       0.01071324       0.00119558       0.00565483
Ti       4.36660256       2.28514167      25.51203625       0.01037864       0.00311465       0.00017312
Ti       1.67749500       2.72690718      25.75830008       0.00493008       0.00357946      -0.00620697
Zr       4.92419688       5.12618913      25.73039555      -0.00028392      -0.00706770       0.00269129
Ti       2.92917032       0.49715293      27.12702533       0.00595274       0.01034523       0.01075223
Ti       6.67414353       2.64065501      27.08993219       0.00295543      -0.00127265       0.00333419
Ti       0.32935301       0.52859708      28.18676651      -0.00219065       0.00275919       0.00840694
Ti       3.63224321       2.99016389      28.13343790       0.00079375       0.00025956      -0.00837107
Ti       5.34015589       0.69801017      28.65423085       0.00446328       0.00297430      -0.00580709
Ti       5.73895279       4.84244181      28.74966077       0.00452632      -0.00018429       0.01110754
Ti       7.24770596       2.52109168      29.86138339       0.00771416       0.00836815       0.00243013
Ti       2.57755656       0.88704825      29.88944726      -0.00645073       0.00012119       0.00662034
Ti       4.58593592       2.72088380      30.73864823       0.00176351       0.00674116      -0.00833166
Ti       4.08384550      -1.32742003      30.76882725      -0.00303480       0.00980083      -0.00036590
Ti       6.13714144       0.50223635      31.53869595      -0.00531763       0.00790392      -0.00297680
Ti       5.13714029       5.42637768      31.53970733       0.00409660       0.00745170       0.00703221
Ti       3.37948542       0.72919083      32.60279055      -0.00270067       0.01171057      -0.00232658
Ti       6.70454214       3.14420068      32.57722729      -0.00655568       0.00426466      -0.00340361
Ti       3.91983288       3.46923417      33.37545106       0.00769348       0.00558750      -0.00994180
Ti       0.61756929       1.01892511      33.39278328      -0.00100080       0.00219392       0.00019066
Ti       2.17412745      -1.23939131      34.39243659       0.00208233       0.00221003       0.00683319
Ti       5.62070919       1.12507461      34.37622422       0.00631241      -0.00169173       0.00480610
Ti       3.23847054       5.50915910      35.23158528       0.00534645      -0.00012139       0.00195922
Ti       2.72732937       1.44594856      35.25130752      -0.00275492      -0.00031420       0.00550260
Ti       4.79031515       3.29424728      36.06600041       0.00248545       0.00093163       0.00295339
Ti       4.46141053      -0.86435150      36.08037673       0.00660891      -0.00310831       0.01095960
Ti       6.42374350       0.95079000      37.21773543      -0.00058014      -0.00057461       0.01214146
Ti       1.62472034      -0.62819848      37.23439152      -0.00267379      -0.00276237       0.01059769
Ti       6.97717152       3.68200267      37.83084598      -0.00347661       0.00154097      -0.00575922
Ti       3.71345968       1.21961231      37.84609994      -0.00048896      -0.00259819      -0.00292549
Ti       4.37814231       3.77671837      38.81827142       0.00275145      -0.00321738      -0.00534285
Ti       5.09444948      -0.98783819      38.83099952      -0.00642033       0.00342935      -0.00384790
Ti       5.75389800       1.50033411      40.09531732      -0.00512126      -0.00104131       0.00120052
Ti       2.43955006      -0.93616041      40.10977929      -0.00125838      -0.00389923       0.00018067
Ti       3.46104271       5.91245140      40.42559669      -0.00309348      -0.00403848      -0.00736306
Ti       2.97793769       1.83830966      40.44141480      -0.00283122      -0.00223750      -0.00642583
Ti       4.68637260       3.69632357      41.61239320      -0.00401097      -0.00137348      -0.00131249
Ti       4.87469102      -0.76317401      41.62818514       0.00120599      -0.00280587      -0.00088889
Ti       2.14731969       3.63740659      42.95342767      -0.00434417      -0.00245293      -0.00143507
Ti       1.66755816      -0.43617013      42.96947974      -0.00146461      -0.00483387      -0.00176846
Ti       7.10983890       3.86660958      43.06815946      -0.00514604      -0.00857450      -0.00569451
Ti       3.81109510       1.42015672      43.08406819      -0.00461983      -0.00587611      -0.00689241
Ti       4.61977156       3.76457703      44.38975069      -0.00263489      -0.00266846      -0.00484506
Ti       4.96782616      -0.78743061      44.40558792      -0.00081442      -0.00234701      -0.00496069
Ti       3.48681273       5.97233556      45.74522768      -0.00694869      -0.00873245      -0.00513201
Ti       3.01985322       1.89101126      45.76111559      -0.00306722      -0.00938434      -0.00562936
