100
Lattice="4.4265 -2.555641 0.0 3.767997 6.526363 -0.031456 0.0 0.0 45.781652" Properties=species:S:1:pos:R:3:forces:R:3 job_name=CSL13-Zn-Zn-61-d-5.27 GB_type=CSL13 element=Zn system=Zn-61-d-5.27 distance=5.27 energy=-768.43192552 stress_kbar_3x3="_JSON [[-37.03671992, -2.16721065, 0.04521796], [-2.16721068, -40.03132145, 1.43292127], [0.04521806, 1.43292127, -18.94736588]]" pbc="T T T"
Ti       2.43195643      -0.94599386       0.04010832      -0.00168991       0.00029934       0.00543821
Ti       5.73020676       1.50235551       0.02572018      -0.00106912      -0.00081100       0.00447629
Ti       4.96062520      -0.85797145       1.38300115      -0.00127295      -0.00006619       0.00050265
Ti       4.54646376       3.73325437       1.36804231      -0.00020816      -0.00062610      -0.00024372
Ti       7.06998828       3.81474447       2.61535505      -0.00210132      -0.00149561      -0.00022660
Ti       3.77518883       1.36668896       2.63016852      -0.00233998      -0.00196123       0.00058506
Ti       1.63616109      -0.48619646       2.88858492      -0.00192596      -0.00288658      -0.00140575
Ti       2.10825789       3.59041226       2.87250403      -0.00364022      -0.00187807      -0.00116877
Ti       4.70788407       3.61209628       4.16577949      -0.00393595      -0.00276376       0.00077822
Ti       4.78410291      -0.78289961       4.18200593      -0.00278411      -0.00153337       0.00163450
Ti       3.41831229       5.83308419       5.24527286      -0.00175047      -0.00304619       0.00084240
Ti       2.92735602       1.76533368       5.26130144      -0.00262294      -0.00158443       0.00150192
Ti       2.38031730      -0.98639645       5.76083476      -0.00407238      -0.00465248      -0.00048524
Ti       5.73604464       1.42816914       5.74546038      -0.00419424      -0.00609854      -0.00074878
Ti       4.25735307       3.73419775       6.95553335      -0.00252189      -0.00239253       0.00086065
Ti       5.11894473      -1.11415712       6.97170865      -0.00198745      -0.00116622      -0.00123052
Ti       6.90851311       3.56535241       7.84801847      -0.00326340      -0.00436089      -0.00000138
Ti       3.64729147       1.09692980       7.86384121      -0.00271493      -0.00286918      -0.00100902
Ti       6.35543941       0.86508321       8.61434660      -0.00285427      -0.00297614       0.00096631
Ti       1.58543517      -0.73210581       8.62969304      -0.00248748      -0.00432005       0.00159064
Ti       4.77693371       3.15731662       9.68563134      -0.00080092      -0.00371548       0.00078868
Ti       4.35952383      -0.95295958       9.70146196      -0.00056277      -0.00176390       0.00092584
Ti       3.15745946       5.39010253      10.48052205      -0.00282308      -0.00577920      -0.00065357
Ti       2.67600780       1.31643925      10.49632936      -0.00202893      -0.00338613      -0.00144199
Ti       5.88200680       5.17911259      11.44846759      -0.00194143      -0.00331306      -0.00189804
Ti       5.55792455       1.01415257      11.46541157      -0.00075453      -0.00232307      -0.00320263
Ti       0.57504572       0.89247228      12.37344933      -0.00235853      -0.00208823      -0.00202286
Ti       3.84101729       3.35857409      12.35793076      -0.00033192      -0.00087488      -0.00251308
Ti       3.28316494       0.63960951      13.19075342      -0.00122569      -0.00277767      -0.00351589
Ti       6.69370270       3.02081744      13.17462183      -0.00013661      -0.00375416      -0.00078226
Ti       5.07772306       5.34772319      14.29959375       0.00091537       0.00005644      -0.00092819
Ti       6.10803297       0.40195795      14.31600591       0.00059063      -0.00044752      -0.00097685
Ti       4.52610100       2.62084007      14.96805946       0.00201651       0.00037771      -0.00299284
Ti       4.02162232      -1.43763630      14.98441629       0.00062948      -0.00371329      -0.00133905
Ti       7.14009912       2.50935662      15.92830128      -0.00316683       0.00301413      -0.00145812
Ti       2.62054742       0.76757670      15.94316872      -0.00260268      -0.00405780      -0.00135504
Ti       5.74214035       4.78683161      17.18472201       0.00052917      -0.00009928       0.00014761
Ti       5.29362671       0.69617267      17.20319702       0.00242524       0.00425604       0.00273203
Ti       3.60865387       2.93228539      17.56882608       0.00329678       0.00119667      -0.00019192
Ti       0.32713979       0.47725818      17.58309544       0.00016995      -0.00263018      -0.00209503
Ti       2.86561090       0.51250554      18.74269247       0.00255570      -0.00322761       0.00048794
Ti       6.80052936       2.59193477      18.73159123       0.00256938      -0.00047335      -0.00246231
Ti       4.92563422       5.19839510      20.06092930       0.00169752      -0.00068662      -0.00109345
Ti       1.64220261       2.74090892      20.07674992       0.00278072       0.00615954       0.00033886
Ti       4.39366518       2.40149157      20.21122590       0.00070714       0.00205979       0.00018983
Ti       3.91731859      -1.66549226      20.23107067      -0.00089714       0.00399968      -0.00590544
Ti       6.88199171       2.51171981      21.51532750      -0.00362055      -0.00187481      -0.00553598
Ti       2.75587859       0.53251542      21.53543711       0.00591335       0.00226531      -0.00265863
Ti       3.57213614       2.85151868      22.88713102       0.00588924       0.00056667      -0.01023834
Ti       0.28870653       0.41618370      22.88843677       0.00435505      -0.00010199      -0.00175441
Ti       5.73186512       4.71210187      22.93003467       0.00369667       0.00503114      -0.00328080
Ti       5.24570302       0.64714973      22.93962031      -0.00344328       0.00605797      -0.00372604
Ti       2.72918681       0.53841223      24.34146835       0.00215148      -0.00298759      -0.00932073
Ti       6.93626337       2.47587824      24.30962282       0.00080671       0.00254235       0.00571408
Ti       3.95728734      -1.66263119      25.52322823      -0.00708876      -0.00355195      -0.00063393
Ti       4.46913513       2.32134253      25.46995904       0.01230407       0.00738792      -0.00371375
Ti       1.71106831       2.74962814      25.76059913       0.00368393       0.01796011       0.00342306
Ti       4.94177642       5.12407425      25.86002136       0.00505643      -0.00214643      -0.00003787
Ti       2.99791188       0.46101067      27.13730263       0.00372756      -0.00389400       0.00396853
Ti       6.72859857       2.65715905      27.13307875      -0.00243259       0.00557018      -0.00265309
Ti       0.40022957       0.56408028      28.07890290       0.00213910       0.01152483       0.00037444
Zn       3.77146519       3.01344706      27.96173225      -0.00032775       0.00936830      -0.00157763
Ti       5.48853695       0.66148891      28.68859309       0.00091486       0.00162343       0.00067930
Ti       5.72635416       4.90526789      28.72728467       0.00422058      -0.00021566       0.00066158
Ti       3.01543809       5.01321955      29.84825635       0.00457623       0.00439394       0.00145236
Ti       2.54810173       1.05770255      29.84520652       0.00385871       0.00456202      -0.00166850
Ti       4.75286278       2.82449488      30.52975580       0.00160044       0.00448443      -0.00527755
Ti       4.18044109      -1.20961335      30.61805307      -0.00113074       0.00129268      -0.00025134
Ti       6.16688891       0.66222798      31.62776125       0.00143747       0.00381071       0.00092926
Ti       5.17894254       5.49501109      31.50950262       0.00460221       0.00081106      -0.00077369
Ti       3.45343886       0.78312942      32.49299569      -0.00264357       0.00252007       0.00275223
Ti       6.76923685       3.35019475      32.45693874       0.00188152       0.00858582       0.00156090
Ti       4.06387864       3.52344580      33.23631483       0.00290232      -0.00006387       0.00133755
Ti       5.08061036      -1.39353274      33.29114773       0.00031888       0.00266906       0.00149489
Ti       2.21428426      -1.13089545      34.42147810       0.00218516      -0.00213502       0.00117440
Ti       5.60495336       1.24415663      34.42326414      -0.00052831       0.00056893       0.00410118
Ti       3.28400593       5.60393792      35.07009677       0.00039591      -0.00202832      -0.00401313
Ti       2.79038007       1.60708459      35.06684430       0.00208519       0.00003873       0.00013528
Ti       4.70865840       3.43376252      36.02036935      -0.00298385       0.00153193      -0.00061039
Ti       4.59731089      -0.86784544      36.03224863      -0.00338202       0.00155403       0.00002652
Ti       6.43937728       0.95880958      37.28305165      -0.00297671      -0.00304061       0.00271754
Ti       1.56723311      -0.57916610      37.27908208       0.00178370      -0.00326935       0.00484591
Ti       6.98817286       3.73244893      37.66555002      -0.00047601      -0.00042748       0.00281160
Ti       3.70377050       1.26522637      37.67036455      -0.00454783      -0.00228718       0.00475444
Ti       4.44290209       3.70501704      38.81511088       0.00126497      -0.00479975       0.00083756
Ti       4.95767580      -0.94068625      38.83274973       0.00031971       0.00287033       0.00376863
Ti       5.68861181       1.47184423      40.13223165      -0.00236389      -0.00502284       0.00275411
Ti       2.39933570      -0.97739138      40.14851259      -0.00093309      -0.00228799       0.00276234
Ti       3.40317574       5.88035765      40.31212364       0.00214891       0.00137575      -0.00092199
Ti       2.93656196       1.80467629      40.32688998       0.00331987      -0.00193070      -0.00081825
Ti       4.59039161       3.67124784      41.60257032      -0.00083941       0.00242554       0.00000009
Ti       4.86061312      -0.83828994      41.61964252      -0.00217136       0.00098637       0.00184483
Ti       2.08597347       3.58697381      42.97242609      -0.00181360      -0.00347549       0.00069831
Ti       1.61942011      -0.49607261      42.98877862      -0.00029872      -0.00198775       0.00071400
Ti       7.05976847       3.80523040      43.00714359       0.00160622       0.00352087       0.00191074
Ti       3.74896147       1.36653352      43.02102953       0.00102701       0.00033215       0.00049621
Ti       4.58105699       3.69816861      44.37355555       0.00153867       0.00180962       0.00425199
Ti       4.90314884      -0.83550866      44.38974887       0.00068283      -0.00117724       0.00252071
Ti       3.43711677       5.91703073      45.70974988      -0.00128209       0.00078577       0.00445831
Ti       2.97605260       1.83241391      45.72673398      -0.00092628      -0.00094135       0.00609387
