100
Lattice="4.4265 -2.555641 0.0 3.767997 6.526363 -0.031456 0.0 0.0 45.781652" Properties=species:S:1:pos:R:3:forces:R:3 job_name=CSL13-Zn-Zn-54-d-2.65 GB_type=CSL13 element=Zn system=Zn-54-d-2.65 distance=2.65 energy=-768.38712182 stress_kbar_3x3="_JSON [[-36.20058855, -2.25089864, 0.17758596], [-2.25089859, -39.36849514, 1.7875023], [0.177586, 1.78750228, -18.46741717]]" pbc="T T T"
Ti       2.41618862      -0.98155108       0.07162810       0.00040309       0.00110966       0.00027360
Ti       5.71542285       1.46583681       0.05705479       0.00123481      -0.00103834       0.00229732
Ti       4.95478979      -0.89938744       1.39708761       0.00075586       0.00086207      -0.00349433
Ti       4.52101732       3.70162623       1.38236167      -0.00342275      -0.00057189      -0.00375545
Ti       7.05179052       3.77541786       2.61043875       0.00124063       0.00159986      -0.00296604
Ti       3.75736236       1.32600423       2.62544198       0.00142540       0.00000846      -0.00166276
Ti       1.62227342      -0.52546219       2.91216681      -0.00224294       0.00039434      -0.00153553
Ti       2.08768220       3.55480716       2.89588286      -0.00063054      -0.00543263      -0.00103416
Ti       4.70254176       3.56304333       4.18057808      -0.00204067      -0.00294031       0.00057457
Ti       4.75172099      -0.81431724       4.19731458       0.00260308       0.00260369      -0.00160441
Ti       3.39584541       5.78356413       5.23667284      -0.00126387      -0.00208464       0.00156230
Ti       2.90357114       1.71763182       5.25296295      -0.00024164       0.00040656      -0.00062394
Ti       2.35434079      -1.02879215       5.78297087       0.00039232      -0.00074860       0.00131112
Ti       5.71955506       1.38012552       5.76780057      -0.00057493      -0.00102741      -0.00148494
Ti       4.22021733       3.69133053       6.96444956       0.00054597      -0.00032380      -0.00086199
Ti       5.10913546      -1.17230783       6.98028213       0.00008924       0.00007954      -0.00250302
Ti       6.88072145       3.50764375       7.84081649      -0.00159773      -0.00213410      -0.00102591
Ti       3.61928111       1.03951644       7.85616819      -0.00086932      -0.00057356      -0.00242938
Ti       6.32743953       0.81365029       8.63204078       0.00151352       0.00044759       0.00075673
Ti       1.56266806      -0.78773375       8.64784557      -0.00241714      -0.00111778      -0.00027741
Ti       4.75840999       3.09622311       9.68776712      -0.00177389      -0.00013156       0.00057780
Ti       4.32439253      -1.00511656       9.70310120       0.00127880      -0.00112733       0.00026372
Ti       3.12454276       5.33310823      10.47727674      -0.00011631      -0.00250599      -0.00164760
Ti       2.65082504       1.25556201      10.49315826       0.00034466       0.00055613       0.00097089
Ti       5.85439459       5.12054310      11.46520050       0.00007366      -0.00118243      -0.00264823
Ti       5.52835128       0.95674264      11.48144981      -0.00058608      -0.00033997      -0.00002875
Ti       0.54703307       0.82843405      12.36319626       0.00069028       0.00232790      -0.00301808
Ti       3.80717344       3.29909920      12.34803361      -0.00242151      -0.00395973      -0.00292189
Ti       3.24204526       0.58717974      13.19203775       0.00184337       0.00345934      -0.00156389
Ti       6.67585530       2.95293889      13.17551203      -0.00168244      -0.00410370      -0.00261353
Ti       5.04798289       5.29133531      14.32538644      -0.00092085      -0.00031845       0.00097776
Ti       6.08459302       0.34296508      14.33880866       0.00100874      -0.00016169      -0.00090824
Ti       4.49189048       2.55610047      14.94801464      -0.00190274      -0.00405431      -0.00116189
Ti       3.99172343      -1.50490390      14.96543122       0.00046833       0.00156293       0.00259317
Ti       7.09138920       2.46834320      15.93497269      -0.00168983      -0.00073147       0.00764399
Ti       2.61816777       0.69919955      15.95182909      -0.00064865       0.00091266      -0.00107270
Ti       5.73723678       4.72863959      17.22819938       0.00032131      -0.00520266       0.00592582
Ti       5.26997828       0.65042281      17.24076022       0.00464429       0.00376171      -0.00135187
Ti       3.58633552       2.87958905      17.55054551       0.00334468       0.00975353      -0.00110488
Ti       0.30549820       0.41059080      17.56206399      -0.00592233      -0.00780383       0.00606057
Ti       2.82196340       0.47820017      18.75447178      -0.00474809      -0.01197030      -0.00370026
Ti       6.80614675       2.52452128      18.74523285       0.00738261       0.00935304       0.00294925
Ti       4.89544908       5.16743338      20.12750771      -0.00863207       0.00111779      -0.00237740
Ti       1.63973274       2.68988115      20.13665530      -0.00282502       0.00803150      -0.00109874
Ti       4.38250208       2.36025149      20.16471854       0.01202010       0.01094891      -0.00156767
Ti       3.88168183      -1.71355778      20.19180063      -0.00407321      -0.01684620      -0.00117998
Ti       6.82834802       2.47123882      21.56334588       0.01067436       0.01042740      -0.00762595
Ti       2.80032272       0.45815283      21.57031559      -0.00612849      -0.00965706      -0.00319273
Ti       3.59701550       2.82313284      22.78180337       0.00298658       0.00773313      -0.00088707
Ti       0.34301556       0.27785361      22.75410232      -0.01039070      -0.00339223      -0.00375635
Ti       5.78718649       4.67830092      22.96891857       0.00409562      -0.00565204      -0.00285667
Ti       5.24226273       0.53783435      23.09288637       0.00297524       0.00056437      -0.00091634
Ti       2.60905518       0.59602761      24.40421751      -0.00541839      -0.00639965       0.00246969
Ti       7.03596597       2.38981348      24.37482569       0.00856853       0.00710140      -0.00380582
Zn       4.04682702      -1.60814050      25.23704397       0.00209900       0.01229465       0.00315402
Ti       4.44547447       2.47314223      25.33314569       0.00328267       0.01050346       0.00215458
Ti       5.99787711       0.28690041      25.97502935      -0.00170072      -0.00055883       0.00574770
Ti       5.11249406       5.12232900      25.91222556       0.00077722      -0.00437847       0.00046616
Ti       3.28098679       0.38624240      27.12803816      -0.00415754      -0.00242424       0.00240778
Ti       6.59246966       2.95302729      27.09135783       0.00198337       0.00922343      -0.00382551
Ti       0.59571886       0.75086715      27.79557633      -0.00063123      -0.00326513      -0.00034320
Ti       3.77911487       3.24113746      27.86343270       0.00604543       0.00404869      -0.00106913
Ti       5.45416123       0.85722401      28.76689756      -0.00430827      -0.00484886       0.00226916
Ti       5.76734210       5.11056925      28.84898890       0.00230733       0.00236620       0.00154028
Ti       3.05875650       5.23469059      29.74646587       0.00440743       0.00806811      -0.00031075
Ti       2.60413751       1.25567730      29.74720861      -0.00372084      -0.00765090       0.00026420
Ti       4.69427325       3.04412715      30.53325813       0.00302011       0.00493195      -0.00108432
Ti       4.31046344      -1.10631700      30.50092331      -0.00386436      -0.00300769      -0.00075335
Ti       6.24563897       0.75694623      31.63877554      -0.00342867      -0.00515339      -0.00170318
Ti       1.46049621      -0.83755475      31.66981049       0.00084809       0.00554183       0.00202210
Ti       3.55447942       0.96087378      32.36876821      -0.00291352      -0.01023572      -0.00204890
Ti       6.82125294       3.48961719      32.33040083       0.00750693       0.00850747       0.00087066
Ti       4.18661240       3.60509669      33.26614693       0.00328481       0.00934672       0.00280991
Ti       5.01415001      -1.21006059      33.28067285      -0.00652724      -0.00894667       0.00182385
Ti       2.28962861      -1.09719528      34.52269030       0.00341699       0.00311907       0.00120653
Ti       5.62905665       1.32664409      34.49147711      -0.00018408      -0.00526637       0.00066877
Ti       3.32819108       5.72706133      34.93926174       0.00341021       0.01038757       0.00077113
Ti       2.84192082       1.66834763      34.96327196      -0.00843907      -0.00736835       0.00390902
Ti       4.61304716       3.52095457      36.05911234       0.00168419       0.00745838       0.00303628
Ti       4.70819660      -0.88837780      36.07056044      -0.00191180      -0.00732950      -0.00094306
Ti       2.03129849       3.50617176      37.35827236      -0.00283897      -0.00663731       0.00174700
Ti       1.55762756      -0.57416332      37.37072565      -0.00472231       0.00245457      -0.00079608
Ti       6.99750314       3.73026834      37.58510980       0.00476667       0.00448898      -0.00172404
Ti       3.69751803       1.27826864      37.60010214       0.00080653      -0.00494211       0.00508237
Ti       4.48064612       3.65746916      38.84882695       0.00149093      -0.00300644       0.00714590
Ti       4.90007333      -0.93291874      38.86244021       0.00188742      -0.00053106      -0.00143697
Ti       5.68154397       1.43687224      40.19115439       0.00043043       0.00094009      -0.00000564
Ti       2.38159298      -1.00702590      40.20658277      -0.00134394       0.00097021      -0.00089954
Ti       3.38699252       5.85391718      40.27706296       0.00078382      -0.00351686       0.00046512
Ti       2.92759806       1.76901772      40.29581949      -0.00076566       0.00287605      -0.00061048
Ti       4.55717860       3.64563683      41.61963473      -0.00358314       0.00005248      -0.00167089
Ti       4.86286740      -0.88484797      41.63442234       0.00254176      -0.00030433      -0.00627917
Ti       2.06907877       3.55130701      43.01293192       0.00415889      -0.00319879       0.00008791
Ti       1.60668184      -0.53268394      43.03220783      -0.00432469      -0.00367417       0.00177797
Ti       7.04648030       3.76620927      42.99557152      -0.00153692       0.00354390       0.00163772
Ti       3.72954671       1.33036312      43.00957040       0.00338803       0.00542358      -0.00049794
Ti       4.57569386       3.65699434      44.38845372      -0.00009293       0.00218688       0.00201031
Ti       4.87780852      -0.86724727      44.40520042       0.00021780      -0.00263751       0.00858119
Ti       3.42254552       5.87981127      45.70745971       0.00081463      -0.00057858       0.00048304
Ti       2.95905207       1.79508068      45.72441910      -0.00210774      -0.00086282       0.00291899
