100
Lattice="4.4265 -2.555641 0.0 3.767997 6.526363 -0.031456 0.0 0.0 45.781652" Properties=species:S:1:pos:R:3:forces:R:3 job_name=CSL13-Cu-Cu-48-d-0.01 GB_type=CSL13 element=Cu system=Cu-48-d-0.01 distance=0.01 energy=-770.43146918 stress_kbar_3x3="_JSON [[-36.97641708, -2.30910366, 0.90558551], [-2.30910371, -37.7708108, 0.66920957], [0.90558552, 0.66920953, -24.17655149]]" pbc="T T T"
Ti       2.44541441      -0.95130672       0.02607127      -0.00362481      -0.00525221       0.00068000
Ti       5.74815920       1.49278991       0.01059553      -0.00196268      -0.00650045       0.00079819
Ti       4.95536701      -0.85770297       1.38816111      -0.00058876      -0.00348099       0.00213029
Ti       4.57507913       3.71337154       1.37261782      -0.00017964      -0.00319754       0.00154897
Ti       7.08251209       3.80513191       2.67187566       0.00222329      -0.00027155      -0.00007543
Ti       3.78290607       1.35937363       2.68664600      -0.00181937       0.00179179       0.00009782
Ti       1.64313142      -0.49617922       2.86489274      -0.00116825      -0.00545236       0.00011275
Ti       2.11870931       3.57968166       2.84898015      -0.00210473      -0.00499762      -0.00019523
Ti       4.66679450       3.63469598       4.16156118      -0.00190493      -0.00094272      -0.00124977
Ti       4.84481816      -0.81787955       4.17883674       0.00036872      -0.00256932      -0.00136305
Ti       3.43843057       5.85488971       5.35016262      -0.00056358       0.00091271      -0.00038141
Ti       2.95670006       1.78119279       5.36554667       0.00079952      -0.00000915       0.00061833
Ti       2.42167549      -0.99568022       5.72518003      -0.00347126      -0.00202282       0.00108725
Ti       5.72895340       1.44682940       5.70762839      -0.00021045      -0.00415612       0.00045658
Ti       4.37361171       3.71679275       6.96980898       0.00067467       0.00020552      -0.00213309
Ti       5.06616715      -1.03518542       6.98670485       0.00008731      -0.00012056      -0.00186316
Ti       6.97043165       3.63895806       7.97989754       0.00137261      -0.00009548      -0.00287843
Ti       3.70400009       1.18059606       7.99316387      -0.00024899      -0.00071415      -0.00188951
Ti       1.99803326       3.45825205       8.58867917      -0.00081645      -0.00151498      -0.00228080
Ti       1.60718796      -0.66583457       8.60872659       0.00095782      -0.00105351      -0.00251002
Ti       4.76950107       3.27288998       9.74859528      -0.00085944       0.00128061      -0.00067023
Ti       4.47560979      -0.90673946       9.75996995      -0.00050513      -0.00007340      -0.00144596
Ti       3.24884211       5.48928298      10.60159451      -0.00161899       0.00016696      -0.00010261
Ti       2.73470553       1.42331794      10.61076536      -0.00324725      -0.00083574      -0.00184771
Ti       5.95224426       5.25891390      11.43045616      -0.00156038       0.00123552      -0.00065653
Ti       5.62265038       1.11038362      11.44020840       0.00042509      -0.00132874       0.00134831
Ti       0.61396484       1.02149384      12.47455991       0.00081718      -0.00226517      -0.00226657
Ti       3.93369107       3.44501907      12.47925607       0.00159408       0.00017623      -0.00125456
Ti       3.40224321       0.71556811      13.27129747      -0.00079842       0.00002587       0.00043919
Ti       6.70329694       3.13766622      13.26523570       0.00005158       0.00021670      -0.00143846
Ti       5.14192372       5.42124945      14.25926555      -0.00591342      -0.00038879       0.00044809
Ti       6.12653080       0.49361417      14.29171582      -0.00284167       0.00359230      -0.00055071
Ti       4.60265931       2.74496875      15.17048223      -0.00385950       0.00252442      -0.00328628
Ti       4.08027579      -1.34257430      15.13308278      -0.00035646      -0.00252327      -0.00392518
Ti       7.29408929       2.48120063      15.98625341      -0.00033515      -0.00122872       0.00109338
Ti       2.55342746       0.89244661      15.99273176       0.00336127      -0.00026697      -0.00255817
Ti       5.71726623       4.82943795      17.08412045      -0.00174286      -0.00243656      -0.00123015
Ti       5.30959703       0.67761740      17.14479416       0.00222595       0.00269238       0.00279289
Ti       3.59468498       2.97982674      17.80755766      -0.00297925       0.00418432      -0.00591917
Ti       0.33506533       0.52393744      17.73358810      -0.00181025       0.00073148      -0.00398212
Ti       2.93943267       0.45451181      18.78050653      -0.00809151       0.00535797       0.00283313
Ti       6.60176877       2.61994400      18.73633430      -0.00076955      -0.00071628      -0.00408458
Ti       4.83326485       5.13738541      19.92501516       0.00294614       0.00227016       0.00522738
Ti       5.93865849       0.10616443      20.07793212       0.00099402       0.00021064       0.00287089
Ti       4.37140918       2.36534460      20.46159704      -0.00166307      -0.00197201       0.00233756
Ti       3.78773118      -1.75355105      20.29009766       0.00051929       0.00303321      -0.00745716
Ti       6.98117807       2.35249978      21.54691651      -0.01471286      -0.00334901       0.01023857
Ti       2.55318289       0.38494936      21.54960235       0.00009150       0.00129296       0.01061785
Cu       3.22402739       2.59733814      22.77934369       0.00241880       0.00314735       0.00036586
Ti       4.59141760      -2.16745216      22.85996186       0.01388244       0.00549922       0.00199768
Ti       5.50852290       4.50865981      22.93764601      -0.00535465       0.00135505       0.00411576
Ti       5.17063210       0.55031970      22.93291982      -0.00248515       0.00562432       0.00442490
Ti       2.47852040       0.46676910      24.35451131      -0.00803315      -0.00036499      -0.00308195
Ti       7.18502480       2.25003304      24.33521291      -0.00404227      -0.00462152      -0.00744348
Ti       3.80106029      -1.72085253      25.35462825      -0.00277581       0.00930977       0.00446263
Ti       4.49215810       2.49418830      25.01078506       0.00508900       0.00562320      -0.00091721
Ti       5.83602371       0.18609457      25.81500646       0.00153827       0.00263556      -0.00028820
Ti       4.93509272       5.10537772      25.93501799       0.00967615       0.00014667       0.00116821
Ti       3.15846969       0.39140832      27.05935942       0.00721971      -0.00269428      -0.00375491
Ti       6.51350823       2.72274391      27.04034206      -0.00221235      -0.00265028       0.00173928
Ti       0.43889653       0.65242105      27.90560739       0.00052398       0.01046267      -0.00478287
Ti       3.66746869       3.06779908      27.72238200       0.00083044       0.00883240      -0.00321538
Ti       5.45593330       0.71608772      28.75295941       0.00557092      -0.00025415       0.00014605
Ti       5.72960132       4.90529493      28.73649711       0.00571253       0.00044711      -0.00065036
Ti       3.01987696       5.09473868      29.71333395       0.00005625       0.00319772      -0.00496731
Ti       2.55203020       1.02483772      29.76333819       0.00130637       0.00423677      -0.00229441
Ti       4.63786768       2.87468233      30.46588924       0.00206134       0.00338674       0.00393834
Ti       4.20219301      -1.24269998      30.54462951       0.00698180       0.00318373      -0.00224824
Ti       6.19908099       0.59585864      31.57432710       0.00266415       0.00427401      -0.00000484
Ti       5.20565848       5.50248391      31.53459915       0.00369473       0.00176176      -0.00126012
Ti       3.50616801       0.80574093      32.41176268       0.00371557       0.00576498      -0.00603257
Ti       6.75237647       3.28745553      32.38452880       0.00246354       0.00693352      -0.00505841
Ti       4.07552708       3.50430236      33.22683658       0.00632794       0.00183160       0.00205559
Ti       5.04264363      -1.40082126      33.25831006       0.00289802       0.00266114       0.00165045
Ti       2.25246839      -1.19679158      34.39661113       0.00122546       0.00174157       0.00779588
Ti       5.63328224       1.21007137      34.39213038       0.00203638      -0.00025062       0.00481891
Ti       3.30651263       5.60237990      35.00643522       0.00559419       0.00453989      -0.00253839
Ti       2.80126643       1.54808831      35.02020390       0.00328024       0.00544341      -0.00078566
Ti       4.69841096       3.40440417      36.00196591      -0.00427784       0.00303684       0.00220154
Ti       4.61936930      -0.90189341      36.01652980       0.00930423      -0.00315830       0.00226229
Ti       2.04197223       3.47617203      37.25462479      -0.00031545      -0.00271290       0.00763588
Ti       1.58717866      -0.61125296      37.26612323       0.00059486      -0.00264001       0.00682499
Ti       7.00716016       3.69689755      37.63150037       0.00252545      -0.00288764      -0.00135998
Ti       3.72278362       1.24256812      37.64792180      -0.00113490       0.00051153      -0.00149195
Ti       4.46510834       3.67908471      38.80444678       0.00442028      -0.00584622       0.00171293
Ti       4.97888966      -0.96802027      38.82028171      -0.00329834      -0.00186901       0.00196116
Ti       5.71715274       1.45090512      40.11640331      -0.00196059      -0.00681460       0.00173495
Ti       2.42441185      -0.99861414      40.13171764      -0.00489016      -0.00471137       0.00163163
Ti       3.43114688       5.86308085      40.30447219      -0.00253343      -0.00149149      -0.00266530
Ti       2.96140706       1.78300478      40.32158837      -0.00097526      -0.00219017      -0.00500211
Ti       4.62044020       3.65415480      41.59630125      -0.00437445      -0.00090750      -0.00230891
Ti       4.88160818      -0.84704246      41.61230933      -0.00095977      -0.00412473      -0.00211454
Ti       2.11015860       3.57629680      42.95721084      -0.00427376      -0.00318274       0.00340075
Ti       1.64292364      -0.50429428      42.97295390      -0.00164678      -0.00494580       0.00351681
Ti       7.08368826       3.79744994      43.01597502       0.00202646      -0.00476586       0.00019182
Ti       3.77414390       1.35728784      43.03217202      -0.00449915      -0.00149051      -0.00055790
Ti       4.59478572       3.69729344      44.37671250      -0.00001966      -0.00419561       0.00418701
Ti       4.93105097      -0.84831160      44.39219705      -0.00218825      -0.00364950       0.00166958
Ti       3.45019574       5.91042625      45.73854190      -0.00146011      -0.00050071      -0.00063190
Ti       2.99435006       1.82406824      45.75422993       0.00089078      -0.00483360      -0.00043538
