100
Lattice="4.4265 -2.555641 0.0 3.767997 6.526363 -0.031456 0.0 0.0 45.781652" Properties=species:S:1:pos:R:3:forces:R:3 job_name=CSL13-Cu-Cu-63-d-5.77 GB_type=CSL13 element=Cu system=Cu-63-d-5.77 distance=5.77 energy=-770.36165548 stress_kbar_3x3="_JSON [[-36.26512392, -2.79647482, -0.35114693], [-2.79647485, -41.3728472, 2.71916029], [-0.35114689, 2.71916029, -21.36460981]]" pbc="T T T"
Ti       2.45334670      -0.92433837       0.03234227      -0.00373073      -0.00451203       0.00372951
Ti       5.74946472       1.52437801       0.01741817      -0.00374576      -0.00332961       0.00338247
Ti       4.98119449      -0.83674667       1.37701951      -0.00522056      -0.00823349       0.00159439
Ti       4.56384448       3.75553242       1.36133057      -0.00456506      -0.00495104       0.00194241
Ti       7.08544143       3.83582866       2.60484519      -0.00483142      -0.00535243      -0.00007046
Ti       3.79245609       1.38548963       2.61976537      -0.00435317      -0.00631930       0.00020310
Ti       1.65089029      -0.46763762       2.88608112      -0.00367685      -0.00631145       0.00059346
Ti       2.12367458       3.60961920       2.86946521      -0.00408548      -0.00531691       0.00105415
Ti       4.72743895       3.62286694       4.16396590      -0.00331057      -0.00743431       0.00036717
Ti       4.78933384      -0.76369879       4.18116180      -0.00591545      -0.00799371       0.00112557
Ti       3.42782874       5.84027077       5.23291705      -0.00367632      -0.00701098      -0.00164812
Ti       2.93645493       1.77574383       5.24837930      -0.00347225      -0.00683801      -0.00104606
Ti       2.38721614      -0.97694749       5.76622032      -0.00386382      -0.00614166       0.00070363
Ti       5.74598121       1.43542246       5.75110743      -0.00285949      -0.00706705       0.00127956
Ti       4.25473892       3.73975003       6.95436731      -0.00555810      -0.00695977      -0.00007650
Ti       5.13582638      -1.11970048       6.96913196      -0.00156127      -0.00948159       0.00037911
Ti       6.91278365       3.56026316       7.83905847      -0.00186231      -0.00720176      -0.00084172
Ti       3.64802125       1.08846978       7.85185259      -0.00313073      -0.00824910      -0.00199581
Ti       6.35806123       0.86107067       8.62180685      -0.00294713      -0.00804186       0.00112436
Ti       1.59025463      -0.73849037       8.63954113      -0.00236585      -0.00735255       0.00128842
Ti       4.78769819       3.13932366       9.68197162      -0.00091131      -0.00855699      -0.00100407
Ti       4.35884649      -0.96036777       9.69710176      -0.00292364      -0.00805974      -0.00063051
Ti       3.15539027       5.37384684      10.47734787      -0.00282548      -0.00593530      -0.00153437
Ti       2.68279736       1.30080113      10.49337888      -0.00128062      -0.00835756      -0.00171803
Ti       5.89029706       5.15940391      11.46109145      -0.00107595      -0.00673129      -0.00007002
Ti       5.56113855       0.99572812      11.48166773      -0.00239163      -0.00748125       0.00043149
Ti       0.57904625       0.86426000      12.36373705      -0.00123292      -0.00729076      -0.00389758
Ti       3.84706826       3.33903459      12.35059532      -0.00056634      -0.00800308      -0.00249292
Ti       3.27761975       0.62421925      13.19571588      -0.00149994      -0.00577113      -0.00123644
Ti       6.71175839       2.99283521      13.18052797       0.00186118      -0.00710343      -0.00194212
Ti       5.08824018       5.32651433      14.32432686       0.00165980      -0.00434174       0.00068486
Ti       1.70278718       2.93010247      14.33942283       0.00149557      -0.00699111       0.00256592
Ti       4.53418478       2.58549220      14.95522434      -0.00174922      -0.00594144       0.00077631
Ti       4.03663482      -1.46806776      14.97509618       0.00129188      -0.00353651      -0.00592116
Ti       7.13646125       2.49623109      15.94320349      -0.00284497      -0.00655072       0.00065558
Ti       2.65969298       0.73293354      15.96258327       0.00863795      -0.00139502       0.00022214
Ti       5.77605296       4.75656268      17.22419561       0.00358825      -0.00435669       0.00021680
Ti       5.31382121       0.67733492      17.24742489       0.00471892       0.00158152       0.00419334
Ti       3.63301670       2.90201165      17.56015948      -0.00030593      -0.00550476       0.00148596
Ti       0.34993462       0.44337151      17.57698702       0.00226212       0.00305201      -0.00387355
Ti       2.87781663       0.49343904      18.76675950       0.00792434       0.01225673       0.00414807
Ti       6.84830087       2.55130366      18.75644245      -0.00121227      -0.01101452       0.00245197
Ti       4.94879257       5.16944248      20.11747998       0.00004382      -0.00230275       0.00414260
Ti       1.68239924       2.70914187      20.13577665       0.00513696      -0.00020895       0.00309993
Ti       4.42939136       2.36875015      20.20862782       0.00005765      -0.00301506      -0.00251593
Ti       3.94301749      -1.70480277      20.21894040       0.00773121       0.00650353       0.00182386
Ti       6.89215323       2.46898603      21.56166491      -0.00187230      -0.00099423      -0.00081795
Ti       2.81907101       0.48474403      21.56159138       0.00904670       0.00878413      -0.00424203
Ti       3.59972339       2.82542082      22.86273789       0.00317730       0.00118231      -0.00203372
Ti       0.32859340       0.34178481      22.85414936       0.00352252       0.00599702      -0.00420305
Ti       5.77779957       4.65536754      23.01924957       0.00166137       0.00154223      -0.00026170
Ti       5.28458406       0.59872520      23.00070058       0.00326075       0.00379271      -0.00244275
Ti       2.68737648       0.51686049      24.37107082       0.00508520       0.01232417      -0.00206226
Ti       7.01176508       2.39492124      24.42185084       0.00509906       0.00459430       0.00006980
Ti       4.02825713      -1.62934332      25.41520222       0.00124065       0.00274396      -0.00387378
Ti       4.42121654       2.31200839      25.45584251      -0.00067669       0.00779466      -0.00941159
Ti       1.68186799       2.69601028      25.92515024       0.00809274       0.00828650       0.00002225
Ti       5.08691808       5.07107422      25.87025464       0.00359789       0.00679427      -0.00129963
Ti       3.11174062       0.46124799      27.18536918       0.00798350       0.00974196       0.00236379
Ti       6.37239543       2.81739981      27.19178937       0.01273985       0.00720764       0.00301040
Ti       4.66836385      -2.02596335      28.00772199       0.00102466       0.01196212      -0.00588640
Ti       3.69550944       3.36802327      27.92484926      -0.00257335       0.01018005      -0.00288893
Ti       5.44672141       0.68084075      28.73171092       0.00402613       0.01452094       0.00300092
Cu       5.70243130       4.97612030      28.80725434       0.00017162       0.00138546      -0.00051964
Ti       7.28723257       2.74001758      29.83915275       0.00373556       0.00867413      -0.00793663
Ti       2.36019358       1.02904114      29.81972914       0.00391163       0.01623335      -0.00345142
Ti       4.56847173       2.79431597      30.53118397       0.00106306       0.01148952       0.00078498
Ti       4.12736659      -1.07310878      30.55355815       0.00657832       0.01121507      -0.00480769
Ti       6.20009224       0.65168559      31.55895120       0.00602860       0.01215763       0.00724051
Ti       5.19162373       5.45521397      31.51684634       0.00290156       0.01256223       0.00388740
Ti       3.40977120       0.83898779      32.41960223       0.00749457       0.01645530      -0.00286054
Ti       6.68138466       3.29500738      32.46321410       0.00246652       0.00733143       0.00273924
Ti       4.02657572       3.54174933      33.26447313       0.00436346       0.00741047       0.00460380
Ti       5.01670116      -1.40802065      33.23519112      -0.00119526       0.01651368       0.00178239
Ti       2.21525439      -1.14626061      34.38125825       0.00285829       0.00625150       0.00518388
Ti       5.59626403       1.19672232      34.38436439       0.00249160       0.01260452       0.00622517
Ti       3.26603698       5.60980364      35.05320466       0.00314538       0.00730617      -0.00820738
Ti       2.76091641       1.57028815      35.05608326       0.00665429       0.01136936      -0.00434111
Ti       4.71057369       3.40869298      35.99492681      -0.00825438       0.00710262      -0.00110422
Ti       4.58136024      -0.87403889      36.01304335       0.00859465       0.00594229       0.00082828
Ti       6.44736988       0.94849952      37.23656411      -0.00033551      -0.00086908       0.00689102
Ti       1.57648832      -0.59330026      37.26235815      -0.00186848       0.00630910       0.00584210
Ti       6.98746166       3.72068512      37.66140859      -0.00097130       0.00074460      -0.00785305
Ti       3.70707527       1.26082644      37.66283275      -0.00045019       0.00486394      -0.00538663
Ti       4.44063769       3.71022102      38.79530461      -0.00092955      -0.00892956       0.00154734
Ti       4.97678424      -0.94627735      38.81299219      -0.00506374       0.00768153       0.00314023
Ti       5.70597269       1.47715058      40.10950294      -0.00529924      -0.00518299       0.00473906
Ti       2.41682654      -0.97236438      40.12389378      -0.00169781      -0.00023722       0.00556729
Ti       3.42348480       5.89042008      40.30541762      -0.00379567      -0.00312460      -0.00218150
Ti       2.95324156       1.81004428      40.31928704      -0.00258375      -0.00118744      -0.00444310
Ti       4.61448127       3.68099412      41.58810009      -0.00794160      -0.00615309       0.00145819
Ti       4.87714863      -0.82131802      41.60610843      -0.00053279      -0.00272812       0.00171946
Ti       2.10887310       3.60265398      42.95716180      -0.00484579      -0.00399196       0.00164172
Ti       1.64075154      -0.47842473      42.97284911      -0.00313909      -0.00235591       0.00403221
Ti       7.08205492       3.82471408      43.00055365      -0.00474007      -0.00556503      -0.00072008
Ti       3.77303215       1.38518471      43.01330739      -0.00486495      -0.00448482      -0.00345198
Ti       4.60243382       3.72090058      44.36394041      -0.00397753      -0.00601932       0.00215906
Ti       4.92683767      -0.81634533      44.37959594      -0.00575097      -0.00543737       0.00149053
Ti       3.45900648       5.93935499      45.70342036      -0.00465359      -0.00598129       0.00137607
Ti       2.99589737       1.85584263      45.71945984      -0.00486097      -0.00665619       0.00019087
