100
Lattice="4.4265 -2.555641 0.0 3.767997 6.526363 -0.031456 0.0 0.0 45.781652" Properties=species:S:1:pos:R:3 job_name=CSL13-Cu-Cu-59-d-4.19 GB_type=CSL13 element=Cu system=Cu-59-d-4.19 distance=4.19 energy=-770.45793519 pbc="T T T"
Ti       2.44163704      -0.92973836       0.01650746
Ti       5.74306316       1.51802363      -0.00046780
Ti       4.96223351      -0.84188906       1.37124926
Ti       4.56405262       3.73849261       1.35564123
Ti       7.08169607       3.82440521       2.62281049
Ti       3.78212096       1.37774832       2.63821897
Ti       1.64244889      -0.47711852       2.86933584
Ti       2.11755088       3.59853085       2.85276002
Ti       4.70323054       3.62430036       4.15729827
Ti       4.80119478      -0.78272685       4.17447209
Ti       3.42668543       5.84320281       5.26045456
Ti       2.93862471       1.77603526       5.27595467
Ti       2.39258363      -0.98363950       5.74920030
Ti       5.73724464       1.43753212       5.73493789
Ti       4.27984867       3.73286735       6.95698912
Ti       5.11645063      -1.10115014       6.97094085
Ti       6.92339194       3.57723576       7.86922385
Ti       3.65755980       1.10701220       7.88289284
Ti       6.36806707       0.87124274       8.61505704
Ti       1.59356458      -0.72516750       8.63177936
Ti       4.78623794       3.16573580       9.69789596
Ti       4.38184694      -0.94973204       9.71348247
Ti       3.17310548       5.39360669      10.49932923
Ti       2.69017476       1.32651857      10.51547197
Ti       5.89785739       5.18119802      11.45585084
Ti       5.57427867       1.01503679      11.47688956
Ti       0.58879679       0.89345235      12.39443675
Ti       3.86551849       3.36233459      12.37758524
Ti       3.30519893       0.63800030      13.21155492
Ti       6.70872513       3.02474189      13.19656015
Ti       5.10371909       5.34250850      14.31477674
Ti       6.13184789       0.39905255      14.33099440
Ti       4.54796367       2.61593765      14.99243075
Ti       4.05155939      -1.43631922      15.01292789
Ti       7.16806266       2.50112018      15.94867991
Ti       2.64057402       0.76660027      15.96558743
Ti       5.77354004       4.77494765      17.20349877
Ti       5.32636198       0.68694643      17.22793271
Ti       3.64109277       2.92656551      17.60255748
Ti       0.35770729       0.46699466      17.61518995
Ti       2.90687958       0.49692363      18.77390644
Ti       6.83373281       2.58222816      18.76504621
Ti       4.96191658       5.18209088      20.07970563
Ti       1.68046418       2.72330816      20.10521541
Ti       4.42590443       2.39044272      20.24843599
Ti       3.95568952      -1.69215066      20.26305191
Ti       6.92732799       2.49061003      21.56575067
Ti       2.79850070       0.51370326      21.55548426
Ti       3.63104516       2.83902360      22.94694799
Ti       0.30661720       0.38442820      22.96902864
Ti       5.76132517       4.66927520      22.94863031
Ti       5.30898465       0.62865166      22.96784302
Ti       2.77147054       0.49985882      24.31236403
Ti       6.98644342       2.46337545      24.36999070
Ti       3.99479205      -1.61102757      25.58494162
Ti       4.49712057       2.25118503      25.53238742
Ti       1.78456884       2.71083099      25.77915204
Ti       5.00219373       5.09788177      25.81285508
Ti       2.96505819       0.52330135      27.11551375
Cu       6.59358870       2.73738222      27.04294065
Ti       0.40119418       0.41854707      28.08177441
Ti       3.74062171       3.21199405      27.96381091
Ti       5.32228674       0.73504622      28.62618389
Ti       5.91074390       4.87850955      28.64614927
Ti       7.20850890       2.61592477      29.79487850
Ti       2.48886202       1.05053247      29.82243409
Ti       4.56116651       2.77032661      30.63946072
Ti       4.13563582      -1.18933172      30.58222365
Ti       6.11714255       0.62435980      31.51517974
Ti       5.14492849       5.47049433      31.40586989
Ti       3.35492474       0.77985200      32.51274078
Ti       6.68727215       3.27869347      32.48578905
Ti       3.95221585       3.54112126      33.27034030
Ti       5.03390135      -1.46236327      33.26174310
Ti       2.14510135      -1.14857918      34.33667247
Ti       5.58061453       1.17735574      34.32821882
Ti       3.21392941       5.56113881      35.12852432
Ti       2.71488359       1.54240802      35.12181854
Ti       4.73796388       3.37428271      35.99088178
Ti       4.48803448      -0.84397137      36.00589888
Ti       6.39722618       0.97267174      37.18808273
Ti       1.56974420      -0.59108041      37.21025055
Ti       6.96121667       3.71860239      37.71763020
Ti       3.67507834       1.24926965      37.72300763
Ti       4.37956436       3.74436887      38.77772340
Ti       5.01031849      -0.96155359      38.78909651
Ti       5.69671628       1.49154984      40.07589132
Ti       2.40378691      -0.95388004      40.09367844
Ti       3.41312082       5.90192584      40.33405935
Ti       2.93396021       1.82317484      40.34644330
Ti       4.62260225       3.67652049      41.57091110
Ti       4.84739837      -0.80171262      41.59305123
Ti       2.10544564       3.60728732      42.93271784
Ti       1.63127921      -0.47674601      42.94787844
Ti       7.07195330       3.82897165      43.01384094
Ti       3.76824382       1.38688268      43.02091809
Ti       4.58505047       3.72304833      44.35582346
Ti       4.92802454      -0.82082968      44.37114565
Ti       3.44775167       5.93555888      45.71634096
Ti       2.98916782       1.84763839      45.73340007
