100
Lattice="4.4265 -2.555641 0.0 3.767997 6.526363 -0.031456 0.0 0.0 45.781652" Properties=species:S:1:pos:R:3:forces:R:3 job_name=CSL13-Zr-Zr-54-d-2.65 GB_type=CSL13 element=Zr system=Zr-54-d-2.65 distance=2.65 energy=-775.35227922 stress_kbar_3x3="_JSON [[-31.65247306, -2.50770567, 0.70007131], [-2.50770565, -33.22725247, 0.74376493], [0.70007132, 0.74376491, -12.14986407]]" pbc="T T T"
Ti       2.48023726      -0.89744719       0.02857605       0.00038097      -0.00032613      -0.00240270
Ti       5.76793093       1.55492858       0.01238016      -0.00019509       0.00062716      -0.00160927
Ti       4.99013788      -0.80431473       1.39322594      -0.00104833      -0.00221519       0.00336437
Ti       4.59417619       3.77563047       1.37759911      -0.00131656      -0.00238359       0.00316764
Ti       7.10376013       3.86228136       2.62796433       0.00118527      -0.00095966       0.00660097
Ti       3.81059680       1.41260794       2.64341777      -0.00126279       0.00102190       0.00682645
Ti       1.66751961      -0.44002809       2.87524991      -0.00163414      -0.00058908       0.00314761
Ti       2.14421979       3.63548860       2.85947848       0.00037169      -0.00152817       0.00285966
Ti       4.73581517       3.65482319       4.16003555      -0.00406180      -0.00206694       0.00289905
Ti       4.81456486      -0.74173528       4.17606116       0.00012559      -0.00435215       0.00304719
Ti       3.44724310       5.87203036       5.23389198      -0.00116665       0.00099014       0.00462620
Ti       2.95247630       1.80668948       5.24883750       0.00152558      -0.00008298       0.00544355
Ti       2.40763989      -0.94819776       5.74075474       0.00090049      -0.00153609       0.00274166
Ti       5.76063084       1.46680819       5.72507228      -0.00213172      -0.00011168       0.00247686
Ti       4.27692277       3.76849809       6.93298444      -0.00291313      -0.00253227       0.00023015
Ti       5.14312888      -1.08267787       6.94905163      -0.00073716      -0.00361333       0.00019683
Ti       6.92586959       3.59545378       7.82185316       0.00035305      -0.00187421      -0.00130565
Ti       3.66876932       1.12474221       7.83699200      -0.00131518      -0.00017958      -0.00093056
Ti       6.37735589       0.88870291       8.58249439      -0.00048262      -0.00160632       0.00078530
Ti       1.60009406      -0.70350942       8.59875288      -0.00133307      -0.00113162       0.00097877
Ti       4.79224066       3.17626490       9.64973310       0.00030313      -0.00211860      -0.00065939
Ti       4.37286328      -0.93245082       9.66591820      -0.00207185      -0.00032530      -0.00082597
Ti       3.17384568       5.40367065      10.44353932      -0.00129966       0.00113491       0.00039570
Ti       2.68580477       1.33343206      10.45878515       0.00042469      -0.00061954      -0.00028311
Ti       5.89442257       5.18701791      11.40344598       0.00001068      -0.00003359      -0.00102283
Ti       5.56441837       1.02784239      11.41787130      -0.00081658       0.00101363      -0.00068989
Ti       0.58352757       0.90224254      12.33123801      -0.00075077       0.00186138      -0.00086096
Ti       3.84730300       3.36624905      12.31520277       0.00163494      -0.00026399       0.00037021
Ti       3.29254978       0.64217784      13.14224957       0.00172619       0.00064488       0.00176153
Ti       6.69612319       3.02858058      13.12751867      -0.00317897       0.00197680       0.00100828
Ti       5.07780118       5.34905998      14.24108825      -0.00064773       0.00229316      -0.00005406
Ti       6.10444972       0.40641162      14.25615196       0.00168728       0.00056546       0.00007534
Ti       4.52837580       2.62719614      14.92333434      -0.00125037       0.00419915      -0.00003294
Ti       4.01940150      -1.43476840      14.93504938       0.00298793       0.00170776       0.00075698
Ti       7.14555633       2.50567668      15.86786451       0.00301204       0.00293461      -0.00076220
Ti       2.60714248       0.77464845      15.88149630       0.00138785       0.00383749      -0.00049696
Ti       5.72998287       4.79780933      17.11723466       0.00288252      -0.00029515      -0.00340809
Ti       5.28816558       0.69833642      17.12719950       0.00101924       0.00078621      -0.00030288
Ti       3.60289388       2.94188888      17.51767639       0.00190723       0.00177806      -0.00656086
Ti       0.32046607       0.48715309      17.52893514      -0.00053301       0.00207145      -0.00672013
Ti       2.86155831       0.52694109      18.67609059       0.00194134       0.00453269      -0.00842818
Ti       6.78207160       2.60662221      18.65293146       0.00344195       0.00085985      -0.00749054
Ti       4.91161300       5.22791556      19.98346220       0.00007511       0.00272795      -0.00630456
Ti       1.63043564       2.76434683      19.99117693      -0.00037964      -0.00036833      -0.00857121
Ti       4.38536652       2.43771300      20.15082675      -0.00051947       0.00355281      -0.01376680
Ti       3.90367826      -1.64042153      20.15479005       0.00051393      -0.00011927      -0.00998162
Ti       6.88023129       2.53141932      21.43912272       0.00527831       0.00341773      -0.00677710
Ti       2.76414327       0.58086635      21.46536745      -0.00180530      -0.00174766      -0.00003651
Ti       3.60615844       2.90308598      22.84299897       0.00017276      -0.00264041       0.00617137
Ti       0.28605077       0.43828398      22.78077824       0.00547841       0.00100336       0.00707511
Ti       5.72945647       4.76140182      22.82439038       0.00505028       0.00789705       0.00158296
Ti       5.25899129       0.67269306      22.85055714      -0.00327169      -0.00306014       0.00438100
Ti       2.73237104       0.63950977      24.23510142       0.00020496       0.00256606       0.01087696
Ti       6.89227471       2.53025527      24.20575144       0.00367140       0.00247975       0.01146949
Zr       3.97258103      -1.59075729      25.57963745       0.00579924      -0.00343252       0.00551992
Ti       4.42772313       2.44078331      25.55830659      -0.00787060      -0.00676179       0.00106266
Ti       1.72024262       2.85872467      25.72925871       0.00514207      -0.00692137       0.00433037
Ti       4.91336110       5.19139166      25.69305037      -0.00006715       0.00854460       0.01306332
Ti       2.85754405       0.61127778      27.06785879      -0.00467315       0.00342640      -0.00281216
Ti       6.83819103       2.62094422      27.07278767       0.00516536       0.00425102      -0.00009897
Ti       0.37020311       0.50542689      28.31955281       0.00349187       0.00107464       0.00312821
Ti       3.65863042       2.98710900      28.23809156       0.00092615       0.00081323      -0.00318946
Ti       5.32784371       0.73718895      28.58763413      -0.00189578      -0.00069930      -0.00177775
Ti       5.80465573       4.83612527      28.57820064       0.00460598       0.00578662       0.00173056
Ti       7.17125349       2.55214126      29.87385005       0.00094474       0.00842111       0.00001156
Ti       2.69493083       0.80335611      29.87328793      -0.00478239      -0.00019068      -0.00334782
Ti       4.56919685       2.66511580      30.83384480      -0.00070494       0.00103566       0.00722009
Ti       4.06215013      -1.40216404      30.87298710      -0.00005134      -0.00424950       0.00133322
Ti       6.14922825       0.44631452      31.48076825      -0.00003380      -0.00091238       0.00467192
Ti       5.12345816       5.40087535      31.46330158      -0.00337569      -0.00216887       0.00047981
Ti       3.32266462       0.69265610      32.62707343       0.00116983       0.00456431       0.00402489
Ti       6.73678591       3.06913574      32.61145529      -0.00295190       0.00056023       0.00356908
Ti       3.88754249       3.41741543      33.42905900       0.00220026       0.00164715       0.00215256
Ti       0.61643787       0.94868042      33.46059127       0.00054552       0.00051488       0.00195178
Ti       5.92827334       5.24244350      34.32348908      -0.00114237      -0.00222408       0.00149182
Ti       5.60754053       1.07538072      34.33605156      -0.00016078       0.00073799       0.00074314
Ti       3.20908077       5.45622979      35.28760178       0.00069261      -0.00203262       0.00078228
Ti       2.72339430       1.39385408      35.30268646      -0.00093507      -0.00080260       0.00215678
Ti       4.82697946       3.23714579      36.09050130      -0.00222950      -0.00111890       0.00195989
Ti       4.41759196      -0.87649248      36.11146236       0.00051974       0.00033795       0.00219679
Ti       6.40909290       0.95090025      37.20149608      -0.00015356      -0.00269328       0.00063612
Ti       1.63652286      -0.64779981      37.21432015      -0.00128007      -0.00114230      -0.00003323
Ti       6.97328013       3.66009963      37.88824018      -0.00020960      -0.00384429       0.00145041
Ti       3.70060773       1.19338586      37.90603623      -0.00315534      -0.00151743       0.00020251
Ti       4.34711734       3.79641149      38.81649896      -0.00378442      -0.00132677      -0.00028009
Ti       5.13654755      -1.00977855      38.83408347       0.00099010      -0.00418524       0.00020254
Ti       5.77234150       1.49962634      40.07951971      -0.00181879      -0.00155902       0.00001980
Ti       2.42950967      -0.92138716      40.09583705       0.00055873      -0.00233092       0.00003644
Ti       3.46293860       5.91104280      40.47070007      -0.00034505       0.00053659      -0.00466661
Ti       2.98030328       1.84123879      40.48767275      -0.00016442      -0.00186039      -0.00540058
Ti       4.70747763       3.69198958      41.61041920      -0.00105143      -0.00405941      -0.00426819
Ti       4.85933171      -0.74646771      41.62579942      -0.00073515      -0.00577399      -0.00363476
Ti       2.14941440       3.63868567      42.94677528       0.00075454       0.00031171      -0.00499590
Ti       1.66750229      -0.43364104      42.96288971      -0.00116095       0.00078584      -0.00614640
Ti       7.10810900       3.86863382      43.09042288       0.00200300       0.00065002      -0.00800198
Ti       3.81403861       1.41988106      43.10714487      -0.00127825       0.00093061      -0.00793846
Ti       4.61306821       3.76675945      44.39275925       0.00026758      -0.00283853      -0.00349804
Ti       4.97309903      -0.79260620      44.40835949      -0.00359919      -0.00096106      -0.00346140
Ti       3.48610486       5.96677011      -0.02570381      -0.00078531       0.00082013      -0.00378212
Ti       3.01540525       1.88788947      -0.00940710       0.00108714       0.00005616      -0.00382677
