100
Lattice="4.4265 -2.555641 0.0 3.767997 6.526363 -0.031456 0.0 0.0 45.781652" Properties=species:S:1:pos:R:3:forces:R:3 job_name=CSL13-Al-Al-52-d-1.39 GB_type=CSL13 element=Al system=Al-52-d-1.39 distance=1.39 energy=-771.50996334 stress_kbar_3x3="_JSON [[-35.01362117, -2.78804984, 1.09380638], [-2.78804984, -38.0931385, 1.01354902], [1.09380643, 1.01354904, -18.45065468]]" pbc="T T T"
Ti       2.48286978      -0.88881731       0.02046559      -0.00141240      -0.00285748       0.00161887
Ti       5.77590476       1.56121331       0.00463559      -0.00131887      -0.00434446       0.00165644
Ti       4.99602256      -0.79726152       1.38653640      -0.00270952      -0.00288822      -0.00002384
Ti       4.59876120       3.78438664       1.37071928      -0.00203935      -0.00573177       0.00007032
Ti       7.10835226       3.86922923       2.62986810      -0.00286133      -0.00286470       0.00003863
Ti       3.81487789       1.41961510       2.64609008      -0.00110006      -0.00366980      -0.00137474
Ti       1.66902789      -0.43454206       2.87908732      -0.00245045      -0.00475465      -0.00286091
Ti       2.14922496       3.63962368       2.86321214      -0.00394169      -0.00527877      -0.00183329
Ti       4.73413228       3.65945917       4.16679677      -0.00273164      -0.00306441      -0.00200899
Ti       4.81968577      -0.74133594       4.18273771       0.00099308      -0.00403861      -0.00350820
Ti       3.44793113       5.87535635       5.25431863      -0.00084069      -0.00365789       0.00389380
Ti       2.95527570       1.80871711       5.27040417      -0.00144662      -0.00229715       0.00312304
Ti       2.41098913      -0.95134611       5.75758022      -0.00253859      -0.00262726      -0.00158533
Ti       5.75621062       1.46774030       5.74167728      -0.00098420      -0.00272451      -0.00181506
Ti       4.28115749       3.76356769       6.95419946       0.00030420      -0.00073154       0.00208378
Ti       5.13723639      -1.08108656       6.96985477      -0.00365706       0.00041903       0.00202499
Ti       6.92570821       3.59698529       7.85386479      -0.00082589      -0.00022376       0.00275306
Ti       3.66994622       1.12559146       7.87002419      -0.00031217       0.00033311       0.00184411
Ti       6.37667473       0.88687642       8.60868414       0.00078620      -0.00089021      -0.00280085
Ti       1.59718734      -0.70421552       8.62489081      -0.00088221      -0.00192516      -0.00156961
Ti       4.78647152       3.18202869       9.68727749       0.00124090       0.00262059      -0.00190931
Ti       4.38013615      -0.93288779       9.70131555       0.00079694      -0.00351123       0.00117852
Ti       3.17682950       5.40982481      10.48237974      -0.00079302       0.00105862       0.00278685
Ti       2.68822851       1.34184895      10.49885431      -0.00162286       0.00069917       0.00003503
Ti       5.89583077       5.19817833      11.43070736       0.00035035      -0.00068730       0.00055767
Ti       5.57077714       1.03351508      11.44550573       0.00154991       0.00127465       0.00037002
Ti       0.58675697       0.91410257      12.37881080      -0.00037004      -0.00028775       0.00275001
Ti       3.85725505       3.37700919      12.36630138       0.00020809       0.00314920       0.00311724
Ti       3.30726154       0.64829863      13.18704318      -0.00057994      -0.00070836      -0.00200881
Ti       6.69001840       3.04339763      13.17116164       0.00248488       0.00060262      -0.00276383
Ti       5.09046145       5.35557340      14.27105360      -0.00149408       0.00242614      -0.00080865
Ti       6.10849247       0.41425000      14.28417700      -0.00018417       0.00108542       0.00154403
Ti       4.54161276       2.63776948      14.99036388      -0.00086581       0.00243747      -0.00398163
Ti       4.03027723      -1.42068354      14.99953298       0.00012420       0.00015096      -0.00214033
Ti       7.16980158       2.49056581      15.90986096       0.00328840       0.00448506      -0.00599616
Ti       2.59484359       0.78895355      15.92993557       0.00121760      -0.00111215       0.00064618
Ti       5.72614839       4.79096171      17.15120063       0.00013799       0.00550826      -0.00671917
Ti       5.29731510       0.67564299      17.16140938      -0.00005070      -0.00356930      -0.00140968
Ti       3.60989542       2.93598606      17.59322655       0.00124208       0.00412636      -0.00280604
Ti       0.31946224       0.47124942      17.59522850       0.00057683       0.00411432       0.00218368
Ti       2.87233770       0.50205609      18.71806936      -0.00549275      -0.00002190      -0.00265294
Ti       6.75748655       2.59414063      18.69084330       0.00179866       0.00648807       0.00284035
Ti       4.90445630       5.21284299      20.03936652       0.00556194       0.00902586       0.00083599
Ti       1.63631883       2.72451471      20.04595586       0.00412664       0.00167220       0.00433701
Ti       4.38119861       2.39082068      20.23834642       0.00354205       0.00891586      -0.00000081
Ti       3.88423255      -1.64966402      20.22777382      -0.00169660      -0.00320444       0.00027742
Ti       6.87265244       2.49213275      21.47825093       0.00325959       0.01099573       0.00341381
Ti       2.74072646       0.54340717      21.53988158      -0.00258409      -0.00430728       0.01802839
Ti       3.56462677       2.87962202      22.88003821       0.00584435       0.00255930      -0.00027313
Ti       0.26491976       0.39274533      22.86242879       0.00885177       0.00044749      -0.00104672
Ti       5.73265312       4.71638518      22.86084348      -0.00604834       0.00826254      -0.00261581
Ti       5.24402965       0.65758153      22.88560003      -0.00782993       0.00059707      -0.00256501
Al       2.68755750       0.59331616      24.27144241      -0.00129288      -0.00535309      -0.00493451
Ti       6.88670960       2.51859082      24.25783271       0.00730267       0.00971275      -0.00508390
Ti       3.92287828      -1.64052988      25.54774837      -0.00588214      -0.00690744       0.00422587
Ti       4.41296281       2.45422915      25.51866708       0.00593074       0.00574014       0.00524367
Ti       1.66767958       2.79924665      25.77375917       0.00223947       0.00500491       0.00365340
Ti       4.90239548       5.24530429      25.74108007       0.00456196       0.00254230       0.00400551
Ti       2.90991905       0.53946473      27.01668856      -0.00241958       0.00047462       0.01294080
Ti       6.78000754       2.65508836      27.05596051       0.00223891       0.01031655      -0.00405502
Ti       0.39101325       0.52921354      28.15935554       0.00320264       0.00431692      -0.00442494
Ti       3.62250995       2.97514093      28.12244324       0.00257666       0.00230717      -0.00286655
Ti       5.31589909       0.73349196      28.59834944      -0.00044769      -0.00322301      -0.00582004
Ti       5.76572009       4.85329208      28.56793806       0.00091830       0.01037367       0.00233054
Ti       7.22898162       2.51961464      29.82987006       0.00589399       0.00641115       0.00650009
Ti       2.64015162       0.84208087      29.84277036       0.00105331      -0.00306739      -0.00709802
Ti       4.59243502       2.71280081      30.71738127       0.00027546       0.00292946       0.00275454
Ti       4.06917225      -1.37955605      30.75739041       0.00210015       0.00271350       0.00195179
Ti       6.12688157       0.46883959      31.46369935      -0.00040494       0.00312533      -0.00196989
Ti       5.14583385       5.40874921      31.44816441      -0.00095337       0.00507737      -0.00067694
Ti       3.37238864       0.69710529      32.56759028       0.00078947      -0.00280100       0.00072331
Ti       6.72570601       3.10500547      32.54784133       0.00374306       0.00327681       0.00118031
Ti       3.90800677       3.43938631      33.34393610       0.00213674       0.00088848      -0.00233609
Ti       0.63218330       0.99121520      33.36986858      -0.00003610      -0.00014784      -0.00031520
Ti       5.93678125       5.26108466      34.30561754       0.00446545      -0.00062886       0.00074169
Ti       5.62700304       1.10139004      34.32635554       0.00140674       0.00000924       0.00255089
Ti       3.23770850       5.47878795      35.21404920      -0.00127669       0.00291026      -0.00358195
Ti       2.73259652       1.41511100      35.23232030      -0.00070089      -0.00069648      -0.00089552
Ti       4.80529709       3.26609730      36.03368537       0.00147213       0.00090368       0.00222745
Ti       4.45120554      -0.87710514      36.05147141       0.00078857      -0.00489030      -0.00346394
Ti       6.42218348       0.93932406      37.18165676       0.00011541       0.00003967      -0.00073252
Ti       1.63356000      -0.64288351      37.19153179       0.00055203      -0.00164303      -0.00103392
Ti       6.97863275       3.66714752      37.81467912       0.00047876      -0.00165186       0.00192770
Ti       3.71488508       1.20314355      37.83222596      -0.00011113       0.00025203       0.00186454
Ti       4.37230585       3.77704805      38.78620007       0.00045538      -0.00175831       0.00025583
Ti       5.11012538      -1.00109539      38.80188877      -0.00353529      -0.00236917       0.00017685
Ti       5.75913653       1.49803109      40.06408903      -0.00084386      -0.00180555       0.00105635
Ti       2.44138137      -0.93693797      40.07894861      -0.00134404      -0.00434021       0.00074110
Ti       3.46598639       5.90997024      40.41390089       0.00017151      -0.00492709      -0.00654749
Ti       2.98096703       1.83886667      40.42920201      -0.00166112      -0.00190098      -0.00598059
Ti       4.69557312       3.69591077      41.59130507      -0.00096954      -0.00323337      -0.00353204
Ti       4.87406756      -0.75800427      41.60605577       0.00004805      -0.00319942      -0.00199354
Ti       2.15200383       3.64069123      42.93233192      -0.00405880      -0.00547673      -0.00239678
Ti       1.67111697      -0.43234071      42.94798580      -0.00263357      -0.00640833      -0.00237962
Ti       7.11402108       3.87094585      43.05513381      -0.00229675      -0.00261014       0.00000205
Ti       3.81576364       1.42392447      43.07080724      -0.00036238      -0.00287049       0.00185338
Ti       4.62267639       3.77111244      44.37589822      -0.00214248      -0.00545966       0.00128437
Ti       4.97350898      -0.78428234      44.39152453      -0.00267009      -0.00199576       0.00204742
Ti       3.49009409       5.97741614      45.73824237      -0.00248463      -0.00623157       0.00245289
Ti       3.02385645       1.89541268      45.75383314      -0.00301119      -0.00520396       0.00249631
