100
Lattice="4.4265 -2.555641 0.0 3.767997 6.526363 -0.031456 0.0 0.0 45.781652" Properties=species:S:1:pos:R:3:forces:R:3 job_name=CSL13-Zn-Zn-56-d-2.88 GB_type=CSL13 element=Zn system=Zn-56-d-2.88 distance=2.88 energy=-768.10560095 stress_kbar_3x3="_JSON [[-34.53311964, -2.45236928, -0.2979793], [-2.45236923, -39.54811545, 3.57628498], [-0.29797931, 3.57628496, -19.49858642]]" pbc="T T T"
Ti       2.43722910      -0.95381585       0.05827642       0.00063710      -0.00082465       0.00308817
Ti       5.73500662       1.49463956       0.04194639      -0.00324437      -0.00272643       0.00790027
Ti       4.97759614      -0.87109296       1.38674968       0.00076933       0.00014167      -0.00051234
Ti       4.53847146       3.73428342       1.36881246      -0.00256946      -0.00337181       0.00621396
Ti       7.07050010       3.80782111       2.58866111      -0.00386854      -0.00578630       0.00124254
Ti       3.77618732       1.35620540       2.60372194       0.00046353       0.00015593      -0.00067368
Ti       1.64219795      -0.49529073       2.90577775      -0.00359111      -0.00489856       0.00439475
Ti       2.10452795       3.58728451       2.88857328       0.00015529      -0.00287940       0.00360016
Ti       4.73162102       3.58661904       4.17272987      -0.00051316      -0.00465540       0.00154562
Ti       4.75595925      -0.77867818       4.19005718      -0.00265702      -0.00147637       0.00348655
Ti       3.40652407       5.80433889       5.21059207      -0.00244490      -0.00770892       0.00034051
Ti       2.91641712       1.74078856       5.22530278      -0.00077916      -0.00431458      -0.00056334
Ti       2.36280718      -1.00102056       5.78670361      -0.00276862      -0.00447626       0.00422620
Ti       5.73666798       1.40169702       5.77100614      -0.00008845      -0.00327216       0.00300255
Ti       4.21532848       3.71327381       6.95406390      -0.00333766      -0.00176132       0.00125571
Ti       5.13668608      -1.16949438       6.96774524      -0.00017278      -0.00651469       0.00437426
Ti       6.88920318       3.51151034       7.81874905      -0.00146498      -0.00536637      -0.00013996
Ti       3.61910854       1.03982868       7.82977359      -0.00209209      -0.00676404      -0.00066048
Ti       6.33261211       0.82028214       8.63890651      -0.00147832      -0.00472569       0.00312313
Ti       1.57238327      -0.78369384       8.65972321      -0.00107469      -0.00499938       0.00282373
Ti       4.77576797       3.08046780       9.66996997      -0.00079338      -0.00494598       0.00165194
Ti       4.32484574      -1.00150980       9.68446874      -0.00317372      -0.00506941       0.00203968
Ti       3.12099375       5.32414327      10.46621223      -0.00126687      -0.00446309      -0.00103539
Ti       2.66717059       1.24259605      10.48205641      -0.00292691      -0.00655505       0.00109356
Ti       5.87308851       5.10104325      11.48784084      -0.00072635      -0.00437583       0.00299203
Ti       5.53547786       0.94259490      11.50866943      -0.00197463      -0.00583958       0.00471177
Ti       0.55404242       0.79685068      12.33360930       0.00081673      -0.00457348      -0.00228505
Ti       3.82259992       3.27687408      12.32262938      -0.00378435      -0.00725675       0.00083009
Ti       3.22744155       0.58270294      13.19719251      -0.00270324      -0.00168723       0.00007625
Ti       6.72291566       2.92170658      13.18152245      -0.00069221      -0.00826871      -0.00244084
Ti       5.06706549       5.28003196      14.37898892      -0.00050036      -0.00304020      -0.00045881
Ti       1.70263888       2.87296975      14.38530743       0.00013973      -0.00372993       0.00130242
Ti       4.51182330       2.51862598      14.91582231      -0.00450490      -0.00776806      -0.00249781
Ti       4.01934520      -1.53622936      14.93557991      -0.00063112       0.00135063      -0.00481416
Ti       7.08504900       2.48156364      15.95754005      -0.00327356      -0.00948224      -0.00183564
Ti       2.69882869       0.65949471      15.98298798       0.00557197       0.00152799      -0.00016614
Ti       5.79734937       4.70933461      17.30022363       0.00140575       0.00136113       0.00036593
Ti       5.29108579       0.65143576      17.30914241      -0.00138396      -0.00416669      -0.00232474
Ti       3.62106096       2.85459633      17.51419689      -0.00438415      -0.00786643      -0.00401863
Ti       0.35231000       0.39268932      17.54228506       0.00314384      -0.00012098       0.00087532
Ti       2.83493388       0.45852999      18.81007580      -0.00184530      -0.00124215      -0.00546417
Ti       6.88758961       2.48011157      18.77527425      -0.00061558       0.00129478       0.00557131
Ti       4.93933141       5.12648303      20.19256931      -0.00069935       0.00313342       0.00285688
Ti       1.69014773       2.63154758      20.24091686      -0.00397219       0.00397434      -0.00398781
Ti       4.42876974       2.29374587      20.12108973       0.00688908       0.00299390      -0.00713141
Ti       3.90860088      -1.73928904      20.16227660       0.00184582      -0.00504025       0.00123957
Ti       6.79541952       2.41761762      21.59182181       0.00898933       0.01241929       0.00490064
Ti       2.88297276       0.37863549      21.69204358       0.00065095      -0.00908883      -0.01113432
Ti       3.68432319       2.83415226      22.68182048       0.00137510       0.01829553       0.00584545
Ti       0.28896071       0.23294256      22.72733174      -0.01049754       0.00047485      -0.01239748
Ti       5.75740416       4.60687602      23.10640093       0.00765725      -0.00515705      -0.00707565
Ti       5.38676347       0.44268408      23.11856855       0.00599635       0.01345405       0.00334324
Ti       2.22301089       0.70778618      24.46307212       0.01463900       0.01300478      -0.00339710
Ti       7.12276400       2.37143138      24.42510388      -0.00532127       0.00240116      -0.00739704
Ti       3.93620262      -1.30910314      25.19402847       0.00584356      -0.00592621       0.00078448
Ti       4.28992801       2.40290633      25.26951393       0.01343630       0.01342301       0.00103432
Zn       5.97820718       0.31653509      26.08736231       0.00373669       0.01417682      -0.00571390
Ti       5.06011486       5.09959190      25.95084189      -0.00536315      -0.00080922       0.00034546
Ti       3.12158575       0.63622996      27.11973250       0.00735161      -0.00024100       0.00135813
Ti       6.40506712       2.89964589      27.08637229      -0.00116768       0.00733458      -0.00821660
Ti       0.40126501       0.68787578      27.81426112       0.00198841       0.01016425       0.00306735
Ti       3.75144269       3.36767398      27.82714548       0.00049724       0.00279254      -0.00818077
Ti       5.44548503       0.80341469      28.82494213      -0.00383139       0.00567023      -0.00029375
Ti       5.79795992       5.08838256      28.79998596       0.00136855       0.00846304       0.00352083
Ti       7.41633198       2.70871880      29.69913666       0.00681231       0.01325429       0.00396657
Ti       2.51390879       1.20024470      29.76779297       0.00131825       0.00097783      -0.00347726
Ti       4.62446499       3.00764077      30.50031790       0.00375804       0.00997925      -0.00088631
Ti       4.27867041      -1.11259583      30.55693573       0.00082032       0.00679017      -0.00336107
Ti       6.24013018       0.73832192      31.62449450      -0.00023462       0.00092764      -0.00113390
Ti       5.19463260       5.62403677      31.61280271       0.00801524       0.00680490       0.00483071
Ti       3.52339050       0.94069354      32.37090839       0.00355609       0.00422113      -0.00555521
Ti       6.78625820       3.44914603      32.33809978       0.00095144       0.00713887       0.00280579
Ti       4.16080006       3.58239620      33.26046293       0.00279877       0.00823567       0.00106432
Ti       5.02096607      -1.25337635      33.27474832      -0.00792381       0.00437974       0.00122599
Ti       2.28938716      -1.10495497      34.47694666      -0.00035104      -0.00656510       0.00154105
Ti       5.62365864       1.30729047      34.48029332       0.00224851       0.00055532      -0.00174337
Ti       3.31979902       5.70860155      34.94023119       0.00374840       0.00685076      -0.00148320
Ti       2.83515507       1.65827604      34.97580867      -0.00336967      -0.00667137      -0.00429319
Ti       4.63339516       3.51179040      36.04481487       0.00217315       0.00390949      -0.00058676
Ti       4.69678119      -0.88192220      36.05741641      -0.00675255      -0.00647627      -0.00419354
Ti       2.04601557       3.51043812      37.33560764      -0.00110583       0.00195775      -0.00155881
Ti       1.57342796      -0.56780335      37.34706943      -0.00519220      -0.00632364      -0.00188923
Ti       7.01061644       3.73357427      37.58592745      -0.00287041       0.00144985      -0.00098966
Ti       3.71496482       1.28722889      37.60243645      -0.00187522      -0.00314231       0.00016974
Ti       4.49387280       3.67319981      38.83437903       0.00285559       0.00212080       0.00087709
Ti       4.92527262      -0.92669210      38.84636678      -0.00639841      -0.00353825       0.00146868
Ti       5.70103191       1.45180664      40.17097049      -0.00044144       0.00269735       0.00060249
Ti       2.40288072      -0.99058456      40.18570476      -0.00079620      -0.00604618       0.00057180
Ti       3.40659969       5.86896359      40.27177604       0.00263191       0.00158190      -0.00097556
Ti       2.94612604       1.78487011      40.29017744      -0.00111970      -0.00150753       0.00100734
Ti       4.57925937       3.66163753      41.60646335       0.00311143       0.00423091      -0.00388658
Ti       4.88023023      -0.86457454      41.62079656      -0.00225284      -0.00178417       0.00183385
Ti       2.08876347       3.57122597      42.99573526      -0.00130016      -0.00037123       0.00278418
Ti       1.62622486      -0.51211458      43.01305992      -0.00010186       0.00213425       0.00110564
Ti       7.06582966       3.78687464      42.98293407       0.00280535       0.00734837      -0.00052875
Ti       3.75181057       1.35217655      42.99650850      -0.00038677      -0.00331313       0.00278354
Ti       4.59548359       3.68112335      44.37197206       0.00104150       0.00275023       0.00365110
Ti       4.89818052      -0.84334642      44.38811082      -0.00119663      -0.00017498       0.00166154
Ti       3.44282128       5.90599031      45.69077653       0.00045307       0.00136136       0.00203257
Ti       2.97879676       1.82324211      45.70591220      -0.00262005      -0.00051493       0.00495067
