100
Lattice="4.4265 -2.555641 0.0 3.767997 6.526363 -0.031456 0.0 0.0 45.781652" Properties=species:S:1:pos:R:3:forces:R:3 job_name=CSL13-Zn-Zn-60-d-5.27 GB_type=CSL13 element=Zn system=Zn-60-d-5.27 distance=5.27 energy=-768.42340052 stress_kbar_3x3="_JSON [[-37.16466108, -2.41497171, 1.31751413], [-2.41497175, -39.52198359, 0.9735297], [1.31751411, 0.97352973, -18.98711516]]" pbc="T T T"
Ti       2.46438316      -0.92854944       0.03525239       0.00114375      -0.00300469       0.00469927
Ti       5.76072402       1.51671447       0.01902080       0.00181902      -0.00697748       0.00383789
Ti       4.98668687      -0.83814321       1.38115703      -0.00003446      -0.00249554       0.00041388
Ti       4.57527748       3.75007371       1.36596529       0.00043433      -0.00093826       0.00836539
Ti       7.09253033       3.83543346       2.61446186      -0.00314838      -0.00284461       0.00022441
Ti       3.79838536       1.38589287       2.63056941      -0.00021749      -0.00229403       0.00090815
Ti       1.65705748      -0.46806279       2.88419871      -0.00074607      -0.00833085       0.00104404
Ti       2.13152690       3.60986635       2.86893087      -0.00183067      -0.00369741       0.00184919
Ti       4.72682143       3.63067666       4.16553365       0.00012116      -0.00103513      -0.00247185
Ti       4.80225996      -0.76389851       4.18068851       0.00047885      -0.00203161      -0.00228596
Ti       3.43474574       5.85028818       5.24467534       0.00004532      -0.00696470      -0.00182926
Ti       2.94352315       1.78362245       5.25999876      -0.00269108      -0.00370151      -0.00125696
Ti       2.39630609      -0.97024068       5.76104468      -0.00349501      -0.00220482      -0.00107566
Ti       5.75033726       1.44428204       5.74552898       0.00073124      -0.00454851      -0.00199761
Ti       4.26910533       3.74956400       6.95473107      -0.00295498      -0.00196425      -0.00302681
Ti       5.13351399      -1.10060340       6.97032076      -0.00054323      -0.00289634      -0.00264449
Ti       6.91966799       3.57781848       7.84676034      -0.00165177      -0.00405048      -0.00086114
Ti       3.65889479       1.10959452       7.86247813      -0.00328344      -0.00382411      -0.00146520
Ti       6.36687607       0.87623808       8.61511503      -0.00042138      -0.00285026      -0.00198558
Ti       1.59573629      -0.72007706       8.63099282      -0.00067774      -0.00238278      -0.00116781
Ti       4.78693275       3.16661652       9.68430112      -0.00081222      -0.00179180       0.00157029
Ti       4.36944304      -0.94277733       9.70005640      -0.00131340      -0.00369247       0.00198637
Ti       3.16699271       5.39786215      10.47989047      -0.00106692      -0.00204049       0.00213379
Ti       2.68625611       1.32540012      10.49571683      -0.00227305      -0.00402656       0.00009840
Ti       5.89125241       5.18491962      11.44664770      -0.00152242      -0.00197150       0.00091348
Ti       5.56627383       1.02249387      11.46178617      -0.00080713      -0.00153683       0.00018411
Ti       0.58365626       0.89918872      12.37260692      -0.00234946      -0.00287812       0.00092075
Ti       3.84999450       3.36317779      12.35655409      -0.00067879       0.00142870       0.00064671
Ti       3.29200959       0.64300917      13.19117326      -0.00067046      -0.00385665      -0.00125325
Ti       6.70111317       3.02633604      13.17483584       0.00040260       0.00075624      -0.00090174
Ti       5.08267653       5.35155625      14.29640398      -0.00047821      -0.00237640       0.00113590
Ti       6.11422621       0.40502531      14.31093586      -0.00197819      -0.00143658       0.00095008
Ti       4.53291983       2.62389249      14.97112504      -0.00034862       0.00168633      -0.00142652
Ti       4.02746354      -1.43535050      14.98578087      -0.00226067      -0.00081638      -0.00370980
Ti       7.14599092       2.50653124      15.92668376      -0.00141730       0.00267142      -0.00632960
Ti       2.62054290       0.77009456      15.94349275      -0.00246700      -0.00162751      -0.00277814
Ti       5.74251168       4.78663604      17.18366291      -0.00351701       0.00036603      -0.00572267
Ti       5.29304079       0.69238893      17.19715594      -0.00030942       0.00078610      -0.00028865
Ti       3.60875349       2.92991556      17.57099131       0.00134297       0.00098317      -0.00175823
Ti       0.32709530       0.47411356      17.58738003       0.00340707       0.00294466      -0.00271152
Ti       2.86439155       0.50769335      18.74441784       0.00205211      -0.00109858       0.00330657
Ti       6.79263137       2.58924410      18.72683500      -0.00421003      -0.00224739       0.00708774
Ti       4.91154941       5.19723048      20.05781072       0.00762771       0.00211315       0.00120734
Ti       1.62985127       2.73995458      20.07332579      -0.00399637       0.00893021      -0.00272269
Ti       4.38467372       2.40622742      20.21696126       0.00580150      -0.00379383      -0.00447715
Ti       3.90108952      -1.67386046      20.23085757      -0.00359033       0.00287206       0.00167709
Ti       6.87020753       2.49923956      21.51862847      -0.00253115       0.00461295      -0.00894664
Ti       2.74698177       0.53288091      21.53097203       0.00180018      -0.00278656      -0.00168872
Ti       3.57189949       2.85536221      22.87680378       0.00260641      -0.00179231       0.00268052
Ti       0.27293095       0.39215663      22.90294362       0.00267708       0.00638457       0.00057244
Ti       5.72190564       4.70938578      22.92238419       0.00313102       0.00317789      -0.00206476
Ti       5.22859618       0.63543634      22.94220559      -0.00466364       0.00060069       0.00275030
Ti       2.69138213       0.55695134      24.32501522       0.00009829       0.00186062      -0.00080010
Ti       6.88233529       2.47453244      24.32575221       0.00093395       0.00759648       0.00864746
Ti       3.79141046      -1.66107610      25.48825695       0.00280310      -0.00127687      -0.00362722
Ti       4.36234657       2.43145856      25.51257725       0.00021920      -0.00100773      -0.00556427
Ti       5.97881370       0.15267707      25.87284468       0.00334714       0.00668417      -0.00223994
Ti       4.88033548       5.25217104      25.74397066       0.00291080       0.00449022      -0.00083079
Ti       2.94499651       0.46432056      27.15223454       0.00051273       0.00273264       0.00027164
Ti       6.68386147       2.65573911      27.12458873       0.00032460       0.00102661      -0.00237395
Zn       4.73483852      -1.92687871      27.98075410       0.00641501       0.00834295       0.00210689
Ti       3.63998623       3.01380095      28.07101967      -0.00035569       0.00888483       0.00232930
Ti       5.39345825       0.71303765      28.73937574       0.00517388       0.00491425       0.00372657
Ti       5.60554859       4.91293155      28.67346370      -0.00130578       0.00415130       0.00134789
Ti       2.98542174       5.11908067      29.83434994       0.00198024       0.00043394      -0.00350592
Ti       2.41848451       0.97273474      29.87130069       0.00412924       0.00048649      -0.00214719
Ti       4.63744307       2.83226586      30.60972130       0.00190819       0.00615664      -0.00673463
Ti       4.07833396      -1.17290029      30.54873736       0.00044465       0.00791674       0.00050015
Ti       6.16891385       0.53526667      31.51984429      -0.00076538      -0.00059673       0.00363980
Ti       5.26342929       5.49042223      31.60229244       0.00314254       0.00757111       0.00227431
Ti       3.51459678       0.82830093      32.49035357       0.00111797      -0.00120834       0.00041963
Ti       6.72913334       3.20663512      32.48989779       0.00281874       0.00204887       0.00522080
Ti       4.01791080       3.52969813      33.28264226      -0.00005962       0.00329988       0.00480921
Ti       5.03508988      -1.43017570      33.25425390       0.00147629       0.00690177      -0.00318046
Ti       2.27177205      -1.21557708      34.42347644      -0.00039805       0.00199085       0.00257676
Ti       5.68524506       1.17933230      34.39246693       0.00217622       0.00162200       0.00198765
Ti       3.33646842       5.59602577      35.07385301       0.00214347      -0.00004274      -0.00371751
Ti       2.78209159       1.50502072      35.10842208       0.00128183       0.00428998      -0.00073545
Ti       4.74757724       3.37359187      36.01464036      -0.00326672       0.00219697      -0.00007516
Ti       4.60167335      -0.87922652      36.03100447       0.00501391       0.00184968       0.00015213
Ti       2.06215572       3.47803056      37.24508302      -0.00024033       0.00031006       0.00373626
Ti       1.62716885      -0.62116997      37.27555075       0.00067663      -0.00110060       0.00469245
Ti       7.02133776       3.68961384      37.67957842      -0.00284367      -0.00142658       0.00083690
Ti       3.75176438       1.24209658      37.70473395       0.00117490       0.00104555       0.00190927
Ti       4.47317942       3.69798228      38.81112828       0.00158853      -0.00361283       0.00439778
Ti       5.02047393      -0.97496460      38.82244776      -0.00085960       0.00466753       0.00533311
Ti       5.74157531       1.46075015      40.11734347      -0.00270305      -0.00252568       0.00056385
Ti       2.44943330      -0.99426214      40.13181779      -0.00233586      -0.00342517       0.00303716
Ti       3.45659094       5.87344469      40.32534012      -0.00083924      -0.00293455      -0.00324450
Ti       2.98312203       1.79001880      40.34035665       0.00266403       0.00346465      -0.00189678
Ti       4.64233647       3.66267691      41.60098860      -0.00464168      -0.00188671      -0.00900379
Ti       4.90040358      -0.83277698      41.61506194       0.00076102       0.00035381      -0.00358999
Ti       2.12763577       3.59085230      42.96261694      -0.00221437      -0.00013243      -0.00085124
Ti       1.66031288      -0.48893294      42.97769684      -0.00062242       0.00120163       0.00051596
Ti       7.10204086       3.81327910      43.01153030      -0.00096895      -0.00490246      -0.00156146
Ti       3.79143009       1.37168192      43.02985329      -0.00007484      -0.00485067      -0.00305817
Ti       4.61553513       3.71393133      44.37179630       0.00227179      -0.00272626       0.00123897
Ti       4.94303078      -0.82702097      44.38748173       0.00013516      -0.00231827       0.00509687
Ti       3.46876955       5.93330614      45.71470769      -0.00059864      -0.00001230       0.00311898
Ti       3.00721605       1.84861012      45.72958986      -0.00521502      -0.00401215       0.00193510
