100
Lattice="4.4265 -2.555641 0.0 3.767997 6.526363 -0.031456 0.0 0.0 45.781652" Properties=species:S:1:pos:R:3:forces:R:3 job_name=CSL13-Zr-Zr-48-d-0.01 GB_type=CSL13 element=Zr system=Zr-48-d-0.01 distance=0.01 energy=-775.36569002 stress_kbar_3x3="_JSON [[-31.40343933, -2.7395719, 0.62074293], [-2.73957192, -33.20717139, 1.09046336], [0.62074291, 1.09046337, -12.34327619]]" pbc="T T T"
Ti       2.47796582      -0.89668452       0.02192457      -0.00030555      -0.00129667       0.00096296
Ti       5.76951705       1.55391167       0.00619992      -0.00125498      -0.00027007       0.00101910
Ti       4.99138357      -0.80474160       1.38303519       0.00055814      -0.00195350       0.00182565
Ti       4.59240865       3.77639280       1.36730643      -0.00387920      -0.00243394       0.00232475
Ti       7.10210524       3.86297200       2.61680819       0.00166804      -0.00480674       0.00545726
Ti       3.81132522       1.41230948       2.63258873      -0.00450482       0.00044910       0.00451791
Ti       1.66604648      -0.44014321       2.86932190      -0.00259336      -0.00285913       0.00478314
Ti       2.14405843       3.63469734       2.85402406       0.00096361      -0.00283204       0.00243227
Ti       4.73690892       3.65277341       4.15527833      -0.00478985      -0.00208750       0.00681892
Ti       4.81173034      -0.74135249       4.17061924       0.00039216      -0.00542669       0.00660227
Ti       3.44589810       5.86989094       5.22789509      -0.00150535      -0.00354993      -0.00173838
Ti       2.95075143       1.80477807       5.24370211      -0.00485038      -0.00398473      -0.00270892
Ti       2.40557156      -0.95095762       5.74122769      -0.00600023      -0.00369449       0.00225711
Ti       5.75857689       1.46436324       5.72559101      -0.00135686      -0.00483955       0.00242660
Ti       4.26843240       3.76754408       6.93275536      -0.00055886      -0.00419577       0.00450798
Ti       5.14252335      -1.08838031       6.94860883       0.00043983      -0.00553491       0.00751536
Ti       6.91933577       3.58983349       7.81366868      -0.00284091      -0.00212199       0.00195091
Ti       3.66465298       1.11838254       7.83001858      -0.00347598      -0.00427642       0.00452153
Ti       6.36941480       0.88640929       8.58524728      -0.00459813      -0.00611591       0.00027803
Ti       1.59771382      -0.70993143       8.59899328      -0.00213205      -0.00346221       0.00178089
Ti       4.79117872       3.17073385       9.64818327      -0.00102133      -0.00194447       0.00069807
Ti       4.36408755      -0.93503335       9.66622464      -0.00313012      -0.00253762      -0.00077755
Ti       3.16567899       5.40149665      10.43475196       0.00023467      -0.00238657       0.00061192
Ti       2.67987170       1.32913731      10.45206493      -0.00004576      -0.00238674       0.00067269
Ti       5.88672331       5.18907996      11.40506467       0.00157492       0.00466048      -0.00051770
Ti       5.55949382       1.02456213      11.42214512       0.00129786      -0.00246912       0.00459186
Ti       0.58311569       0.89827984      12.32663053      -0.00216336       0.00136771       0.00461648
Ti       3.84116813       3.36661082      12.30611264      -0.00527084       0.00254610      -0.00391633
Ti       3.28375302       0.64198456      13.13722776       0.00438741       0.00046175      -0.00656949
Ti       6.69596082       3.02883639      13.11940718       0.00492762      -0.00269777      -0.00075670
Ti       5.07943445       5.34952510      14.24885719      -0.00264183       0.00377469       0.00241256
Ti       6.10931682       0.40788185      14.26574496      -0.00217760       0.00225926       0.00034852
Ti       4.52485767       2.62140851      14.90041827       0.00240912      -0.00229282       0.00187341
Ti       4.02108273      -1.43056687      14.92770218       0.00597813       0.00523432      -0.00292918
Ti       7.13404605       2.52212885      15.86497121       0.00135290       0.01065454      -0.00037628
Ti       2.61796194       0.77047658      15.87556537       0.00560745       0.00314465      -0.00290010
Ti       5.74774855       4.79348772      17.12844047      -0.00037170      -0.00406758       0.00145730
Ti       5.29477789       0.71971904      17.15017832      -0.00120477       0.00517642      -0.00191280
Ti       3.60566607       2.94518518      17.48510636       0.01110945       0.01084002       0.00726057
Ti       0.33586328       0.49067926      17.51740794      -0.00095101       0.00104411       0.00442643
Ti       2.86955008       0.52453507      18.66952091       0.00509900       0.00304334       0.00502943
Ti       6.83191190       2.61205779      18.67416080       0.00341622       0.00707134      -0.01194548
Ti       4.93912817       5.21446207      20.00337455       0.00207819       0.00586663      -0.00485057
Ti       1.66311579       2.77188328      20.00998136      -0.00183609       0.00542484      -0.00453061
Ti       4.40996282       2.42080129      20.07983370       0.00747718       0.00548529      -0.00637002
Ti       3.94407157      -1.63829621      20.16808679       0.00277092      -0.00132206      -0.00867695
Ti       6.87090917       2.58376524      21.45810561      -0.00239931       0.01058607       0.00730511
Ti       2.77155853       0.55063888      21.45333659      -0.00267550      -0.00209491       0.00487305
Zr       3.63839186       2.92541621      22.86851470       0.00985031       0.01703611       0.00264371
Ti       0.31456453       0.42707998      22.88349920       0.00783319       0.00968917      -0.00062725
Ti       5.80337168       4.81770996      22.86630906       0.00633906      -0.00454214      -0.00094425
Ti       5.24797839       0.62000644      22.88248810       0.00260804       0.00137761      -0.00077011
Ti       2.77221581       0.55819805      24.31348854      -0.00336890      -0.00211020      -0.00669479
Ti       6.87984043       2.58670936      24.27624298      -0.00346446       0.00867743      -0.00872549
Ti       3.95229144      -1.62653919      25.59710725       0.00490494      -0.00193832       0.00688991
Ti       4.42034085       2.42983490      25.65431758       0.00980855       0.00643623       0.00386345
Ti       1.67530912       2.78227523      25.75489792      -0.00404365       0.00492354       0.00325393
Ti       4.94836632       5.22509229      25.73072344       0.00205053       0.00792487       0.00442295
Ti       2.89622990       0.53405351      27.10371779       0.00233454       0.00161551      -0.00517733
Ti       6.83456722       2.63582347      27.06577818       0.00255370       0.00773220       0.00935584
Ti       0.35674373       0.51710864      28.23467303      -0.00071331      -0.00029425      -0.00384552
Ti       3.62457837       2.97470507      28.23768669       0.01270113       0.00907322      -0.00678556
Ti       5.32218270       0.74132403      28.61790232      -0.00091648       0.00573286       0.00344497
Ti       5.75868924       4.82462344      28.60860962      -0.00033948      -0.00401252      -0.00181272
Ti       7.17949858       2.54715214      29.87380843       0.00064384       0.01115884      -0.00123206
Ti       2.61834964       0.82197432      29.89367031       0.00353923       0.00207529       0.00147394
Ti       4.55712947       2.67657292      30.81467170       0.00157063      -0.00327993      -0.00282745
Ti       4.05685447      -1.37357190      30.81563544       0.00670159       0.00466163       0.00053058
Ti       6.13023407       0.46468024      31.50278453      -0.00393235       0.00117455      -0.00046901
Ti       5.12172279       5.39297772      31.48611085      -0.00466782       0.00305410      -0.00290961
Ti       3.33836442       0.69176094      32.61712581       0.00650864       0.00001191       0.00376986
Ti       6.71181279       3.10244606      32.60388321       0.00619728      -0.00300929       0.00044344
Ti       3.89053814       3.43709798      33.40884121      -0.00413360       0.00067175       0.00248795
Ti       0.61985342       0.97353581      33.41856823      -0.00514023       0.00016073      -0.00424140
Ti       5.92422133       5.26372455      34.34196474       0.00110164       0.00150696      -0.00116865
Ti       5.60382445       1.09289083      34.35493036       0.00015149      -0.00294123      -0.00595385
Ti       3.21765172       5.47375602      35.26621362      -0.00124781      -0.00137608      -0.00167374
Ti       2.71638538       1.41228545      35.27936250       0.00089478      -0.00235463      -0.00184378
Ti       4.80750589       3.25869201      36.07559312      -0.00032242      -0.00437189       0.00270061
Ti       4.43297997      -0.87714667      36.08893621      -0.00481559      -0.00436854       0.00411942
Ti       6.41024739       0.94610950      37.20528937      -0.00418103      -0.00558161      -0.00053777
Ti       1.62716118      -0.64417649      37.22332576      -0.00080869      -0.00288807       0.00003403
Ti       6.96952909       3.66669096      37.85919034      -0.00420236      -0.00299712      -0.00184651
Ti       3.70430464       1.19934746      37.87369835      -0.00429071      -0.00564607      -0.00102855
Ti       4.35609241       3.78375833      38.81022902      -0.00033499      -0.00377025      -0.00288005
Ti       5.11246955      -1.00360295      38.82610857       0.00084468      -0.00546530      -0.00626631
Ti       5.75826329       1.49704815      40.08205614      -0.00400966      -0.00382398      -0.00279547
Ti       2.43308296      -0.93418834      40.09799866      -0.00460473      -0.00417846      -0.00312154
Ti       3.46099205       5.90629847      40.44129698      -0.00260323      -0.00100896       0.00189651
Ti       2.97421390       1.83704981      40.45716328      -0.00248714      -0.00502460       0.00143900
Ti       4.69455661       3.69024620      41.60455279      -0.00199838      -0.00199052      -0.00471320
Ti       4.86481997      -0.75890631      41.62045551      -0.00066879      -0.00360146      -0.00429802
Ti       2.14594521       3.63516905      42.94265339       0.00010943      -0.00101290      -0.00173959
Ti       1.66516852      -0.43809484      42.95857082      -0.00059942      -0.00235386      -0.00339903
Ti       7.10692512       3.86470753      43.07084688      -0.00087317      -0.00363376      -0.00363952
Ti       3.81025626       1.41760950      43.08633728      -0.00276511      -0.00186825      -0.00249794
Ti       4.61543572       3.76302722      44.38298941      -0.00257984      -0.00362575      -0.00134733
Ti       4.96819018      -0.79122700      44.39863499      -0.00123320      -0.00203751      -0.00105902
Ti       3.48476962       5.96776218      45.74029595      -0.00442156      -0.00449485      -0.00055215
Ti       3.01679378       1.88737704      45.75593958      -0.00268619      -0.00424102      -0.00002845
