100
Lattice="4.4265 -2.555641 0.0 3.767997 6.526363 -0.031456 0.0 0.0 45.781652" Properties=species:S:1:pos:R:3:forces:R:3 job_name=CSL13-Cu-Cu-50-d-0.00 GB_type=CSL13 element=Cu system=Cu-50-d-0.00 distance=0.0 energy=-769.99259464 stress_kbar_3x3="_JSON [[-38.59804591, -1.19963041, 0.57272718], [-1.19963041, -41.65043358, 1.04497666], [0.57272717, 1.0449766, -21.15317036]]" pbc="T T T"
Ti       2.46887831      -0.91974574       0.01995656      -0.00726511      -0.00357499      -0.00076323
Ti       5.76005787       1.53180381       0.00433094      -0.00438701      -0.00955162      -0.00069210
Ti       4.98106311      -0.82705630       1.38963992      -0.00137353      -0.00974006      -0.00039120
Ti       4.58343399       3.75329679       1.37428627      -0.00305390      -0.00391488       0.00025530
Ti       7.09288924       3.83764595       2.63338379      -0.00007126      -0.00468734       0.00165788
Ti       3.80065043       1.38934703       2.64892487      -0.00705149      -0.00782223       0.00080236
Ti       1.65360494      -0.46704923       2.88546077       0.00005435      -0.00445977      -0.00102583
Ti       2.13337094       3.60711348       2.86989860      -0.00237185      -0.00592073       0.00200052
Ti       4.72167324       3.62384864       4.17642257      -0.00477758      -0.00098079       0.00239576
Ti       4.80076756      -0.77212715       4.19072341      -0.00246175      -0.00545865       0.00016155
Ti       3.43313707       5.84056007       5.25860538      -0.00583930      -0.00121326      -0.00286502
Ti       2.93646850       1.77255183       5.27424557      -0.00257988      -0.00160164       0.00039932
Ti       2.39284450      -0.98721804       5.77299282      -0.00428005       0.00533963      -0.00322393
Ti       5.74113869       1.43149793       5.75595646       0.00154750       0.00095574      -0.00130220
Ti       4.25377889       3.73255621       6.96850800      -0.00124609       0.00596824      -0.00623439
Ti       5.12235515      -1.11832596       6.98490701      -0.00614137       0.00197000      -0.00291257
Ti       6.90350226       3.55577102       7.85768788      -0.00217206       0.00059337      -0.00252513
Ti       3.64667132       1.09195044       7.87635550      -0.00209166       0.00533159      -0.00475296
Ti       6.35006419       0.85533142       8.63038458       0.00151184       0.00825593      -0.00162368
Ti       1.58204371      -0.73898044       8.64420349       0.00269744       0.00123651       0.00023710
Ti       4.76751559       3.15054804       9.69793883       0.00969016       0.00253125       0.00084340
Ti       4.34655415      -0.95951895       9.71524506       0.00116746       0.00322035       0.00096285
Ti       3.14737075       5.38522479      10.49111825       0.00270126      -0.00194916      -0.00030394
Ti       2.66566134       1.30561287      10.50933922       0.00287433       0.00192705      -0.00497497
Ti       5.86509228       5.17613644      11.46816978       0.00540264       0.00029947       0.00361827
Ti       5.54728109       1.01280438      11.48106211       0.00816697       0.00354437       0.00034384
Ti       0.56479985       0.89517622      12.38509856       0.00891919       0.00394703      -0.00304292
Ti       3.82782119       3.35349679      12.36689644       0.00077965      -0.00026307      -0.00888812
Ti       3.26807898       0.64084501      13.20668638      -0.00404001       0.00398610      -0.00576551
Ti       6.69651140       3.02184318      13.18511067       0.00428559      -0.00271159      -0.00120018
Ti       5.07630682       5.36091908      14.33124564       0.00063047      -0.00633835       0.00540364
Ti       6.09938830       0.41348268      14.33119223       0.00761598      -0.00270914       0.00519927
Ti       4.52428588       2.63762929      14.97166007      -0.00993420      -0.00978838      -0.00829099
Ti       4.01684583      -1.43108903      14.99626679       0.00586070       0.00697840      -0.00449844
Ti       7.13688046       2.53830729      15.93953748      -0.00148114       0.01269579      -0.00343142
Ti       2.63243346       0.77604549      15.96769256       0.00184404      -0.00628999       0.00448678
Ti       5.74832828       4.82265567      17.23570782       0.00187965      -0.00128291       0.01128108
Ti       5.29617428       0.74007550      17.19576806       0.01137372       0.01163252       0.00100571
Ti       3.60948327       2.96289713      17.55600719      -0.00399583      -0.00165318      -0.00834362
Ti       0.34807732       0.52519162      17.61175275      -0.00526052       0.00356982      -0.00921145
Ti       2.88442879       0.52843817      18.79875353       0.00230591       0.01421663      -0.00416483
Ti       6.84004674       2.63734004      18.72927885       0.00310509      -0.01176769      -0.00217552
Ti       4.92542861       5.27037226      20.17260676      -0.00421799      -0.00460745       0.00659007
Ti       1.64143455       2.78689862      20.01538829       0.00583523       0.00258954       0.00735308
Ti       4.39364455       2.49219513      20.14446613      -0.00076113      -0.00345603       0.00333595
Ti       3.94124368      -1.60610027      20.27672059       0.00066844       0.00874023      -0.01081318
Ti       6.79801210       2.56780070      21.49520631      -0.00308111       0.00457194      -0.00283794
Ti       2.87860363       0.74415500      21.58300568      -0.00870595      -0.00218205       0.00197693
Ti       4.00770576       3.21630351      22.86986470       0.00444626       0.00290165      -0.00068087
Ti       0.36803487       0.36858240      22.88845335       0.01475369       0.00255625      -0.00162621
Cu       6.11990271       4.95621176      22.85948408       0.01425005       0.00788599       0.00339623
Ti       5.42437607       0.59988158      22.88022806      -0.01211693       0.00505577      -0.00265393
Ti       2.87972740       0.74966953      24.18212920      -0.00848333      -0.00124001      -0.00641622
Ti       6.80086130       2.56942688      24.24171705      -0.00296306       0.00611517       0.00515610
Ti       3.94340817      -1.59496137      25.49474114      -0.00001188       0.01221197       0.01094344
Ti       4.39886482       2.50435157      25.59557868      -0.00179259      -0.00372414      -0.00399133
Ti       1.64595666       2.79757150      25.74729966       0.00512934       0.00127778      -0.00898885
Ti       4.92844574       5.28386660      25.55441118      -0.00309671      -0.00443052      -0.00711246
Ti       2.90148985       0.54245781      26.97051795      -0.00052268       0.01487641       0.00400690
Ti       6.84045488       2.66114579      27.01079788       0.00510442      -0.01005133       0.00134735
Ti       0.36375890       0.55405814      28.14813059      -0.00412062       0.00061661       0.00987385
Ti       3.62285996       2.99142164      28.17218720      -0.00345595       0.00168516       0.00732800
Ti       5.31672891       0.76585125      28.56920876       0.00874517       0.01151985      -0.00112575
Ti       5.75604450       4.85441542      28.49672973       0.00132737      -0.00110251      -0.01306674
Ti       7.17414079       2.56465182      29.79996223       0.00029545       0.00829254       0.00265643
Ti       2.63663500       0.82261355      29.80132299      -0.00162250      -0.01028475      -0.00463306
Ti       4.55135701       2.69154027      30.74825569      -0.00856809      -0.01038847       0.00654657
Ti       4.04700859      -1.37934577      30.75398760       0.00025402       0.00220860       0.00390873
Ti       6.11537548       0.46703032      31.43385162       0.00857907      -0.00391026      -0.00416825
Ti       5.11404236       5.40407515      31.40149646       0.00160407      -0.00810163      -0.00498348
Ti       3.31770792       0.68994994      32.55030772      -0.00492832      -0.00063430       0.00496409
Ti       6.71121701       3.08975769      32.53974380       0.00271577      -0.00358980       0.00112625
Ti       3.87130526       3.41992697      33.35056632       0.00045257       0.00002684       0.00572127
Ti       0.59710141       0.96666938      33.36340772       0.00786058       0.00438794       0.00169113
Ti       5.89789566       5.24506618      34.27551249       0.00596492       0.00013766      -0.00591143
Ti       5.58861331       1.07577019      34.29334770       0.00844805       0.00541147      -0.00013989
Ti       3.19463683       5.45485533      35.21241826       0.00607003      -0.00350606      -0.00191779
Ti       2.69742837       1.38276442      35.22684383       0.00446465       0.00144219       0.00185860
Ti       4.78249978       3.23267413      36.02702691       0.00839987       0.00477471       0.00053524
Ti       4.40817385      -0.90195801      36.04102767       0.00352128       0.00086044      -0.00126203
Ti       6.38982948       0.91211404      37.15732285       0.00061088       0.00866222       0.00507447
Ti       1.61111028      -0.67633989      37.17451238       0.00138464      -0.00211373       0.00252400
Ti       6.95005253       3.62946925      37.81883383      -0.00001081       0.00004166       0.00533696
Ti       3.68659745       1.17010663      37.83260744      -0.00479753       0.00436432       0.00589967
Ti       4.33753785       3.75157244      38.77402281      -0.00235630       0.00560141       0.00978177
Ti       5.09767558      -1.03673559      38.78780026      -0.00693981       0.00065417       0.00677399
Ti       5.74386524       1.46610613      40.04928109      -0.00151311      -0.00089255       0.00435880
Ti       2.42126943      -0.96761945      40.06281354      -0.00552706       0.00402888       0.00641311
Ti       3.45031141       5.87903473      40.41332396      -0.00614268      -0.00194979       0.00404843
Ti       2.96098497       1.80732354      40.42898068      -0.00179821      -0.00275403       0.00321401
Ti       4.68452980       3.66336153      41.58091334      -0.00471120      -0.00211545      -0.00221951
Ti       4.85364212      -0.78405656      41.59708993      -0.00391013      -0.00687160       0.00090999
Ti       2.13696657       3.61078807      42.92395282      -0.00374521      -0.00659063      -0.00156587
Ti       1.65492161      -0.46216978      42.93984921      -0.00166824      -0.00467855      -0.00015770
Ti       7.09820553       3.84256678      43.05401794       0.00278833      -0.00542938      -0.00232510
Ti       3.80217088       1.39616419      43.07026881      -0.00867854      -0.00672646      -0.00149272
Ti       4.60692712       3.74116658      44.37367916      -0.00430184      -0.00300762      -0.00236756
Ti       4.95937862      -0.81266262      44.38912344      -0.00122942      -0.01068897       0.00051530
Ti       3.47578185       5.94624711      45.73900646       0.00016724       0.00465922       0.00048151
Ti       3.00847704       1.86689565      45.75535488      -0.00060077      -0.00765086      -0.00164083
