100
Lattice="4.4265 -2.555641 0.0 3.767997 6.526363 -0.031456 0.0 0.0 45.781652" Properties=species:S:1:pos:R:3:forces:R:3 job_name=CSL13-Cu-Cu-56-d-2.88 GB_type=CSL13 element=Cu system=Cu-56-d-2.88 distance=2.88 energy=-770.29688512 stress_kbar_3x3="_JSON [[-35.67040909, -2.70303064, -0.39879812], [-2.70303061, -41.21820829, 3.22984774], [-0.3987981, 3.2298477, -21.45577671]]" pbc="T T T"
Ti       2.42667441      -0.96256467       0.06254710      -0.00116222      -0.00598278       0.00647220
Ti       5.72202384       1.48539965       0.04764530      -0.00559810      -0.00464644       0.00463021
Ti       4.96528316      -0.88493751       1.39285881       0.00033646       0.00084010       0.00010585
Ti       4.52328273       3.72124717       1.37764989       0.00068024      -0.00139408       0.00041367
Ti       7.05486793       3.79117608       2.59607973      -0.00096172       0.00042826      -0.00185357
Ti       3.76287737       1.33986029       2.61028123       0.00168566      -0.00065647      -0.00238665
Ti       1.62620504      -0.51234816       2.91641229      -0.00409809      -0.00420033       0.00329945
Ti       2.09107681       3.56890214       2.89858070      -0.00140205      -0.00391478       0.00191907
Ti       4.71919856       3.56311179       4.18324421      -0.00088947       0.00042823      -0.00449036
Ti       4.73818957      -0.79831433       4.20138578      -0.00016202       0.00029654      -0.00377877
Ti       3.39148039       5.77991324       5.21752787      -0.00047662      -0.00592424      -0.00523733
Ti       2.90111858       1.71781258       5.23274461      -0.00167446      -0.00319039      -0.00518361
Ti       2.34636005      -1.02405897       5.79943214      -0.00149591      -0.00329616      -0.00009673
Ti       5.72332855       1.37868987       5.78471533      -0.00130341      -0.00303231      -0.00204267
Ti       4.19835056       3.69068414       6.96602983      -0.00139517      -0.00059377      -0.00279044
Ti       5.12563732      -1.19550169       6.98051321      -0.00081623      -0.00061097      -0.00411712
Ti       6.87557590       3.48776282       7.82624633      -0.00412800      -0.00483682      -0.00075028
Ti       3.60521853       1.01573442       7.83700924      -0.00261368      -0.00614111      -0.00182572
Ti       6.31781025       0.79992210       8.65218755       0.00127351      -0.00410997       0.00414052
Ti       1.56086536      -0.80775020       8.67226858       0.00115153      -0.00397927       0.00481535
Ti       4.76557667       3.05874707       9.68238934       0.00084156      -0.00422987       0.00136823
Ti       4.31243794      -1.02105307       9.69680936       0.00071953      -0.00426483       0.00143911
Ti       3.10974443       5.30502214      10.47397447      -0.00290757      -0.00193381       0.00624325
Ti       2.65752054       1.22361980      10.49062594      -0.00424125      -0.00322903       0.00199646
Ti       5.86547932       5.08600493      11.50134597      -0.00750477      -0.00306099       0.00327232
Ti       5.52949592       0.92446867      11.52336437      -0.00038602       0.00043109       0.00376330
Ti       0.54581563       0.78036627      12.34311937       0.00273776      -0.00674812      -0.00303123
Ti       3.81672247       3.26426747      12.33156140      -0.00140493      -0.00362647       0.00280055
Ti       3.21756863       0.57412391      13.20517419       0.00066928      -0.00537038       0.00388161
Ti       6.72064527       2.91075311      13.19102100       0.00492928      -0.00895571      -0.00002103
Ti       5.06852204       5.27454835      14.39078878      -0.00016669      -0.00248672       0.00380145
Ti       1.70263618       2.86735564      14.39777437       0.00364031       0.00323806      -0.00153733
Ti       4.51435451       2.51371013      14.92458296      -0.00324413      -0.00166044      -0.00136261
Ti       4.02318278      -1.53910040      14.94581132      -0.01204102      -0.00310764      -0.00628786
Ti       7.08980486       2.48352919      15.96854457       0.00083453      -0.00121542      -0.00113206
Ti       2.70290608       0.65867380      15.99516655       0.00583709      -0.00439881       0.00243035
Ti       5.80308429       4.71896930      17.30461366       0.00465443       0.00627871       0.00651544
Ti       5.30390497       0.65428161      17.31649976       0.00135833       0.00436970      -0.00166718
Ti       3.63337535       2.86431561      17.52554098      -0.00360973      -0.00649064      -0.00611117
Ti       0.35942957       0.40394173      17.55297628      -0.00019959      -0.00697848       0.00502660
Ti       2.84937257       0.47524343      18.81599955      -0.00165438      -0.01168929      -0.00261312
Ti       6.90145939       2.49755874      18.78249626       0.00482451       0.01420826       0.01003522
Ti       4.95655370       5.15535540      20.19676960       0.00449628       0.00137126       0.00286514
Ti       1.70936809       2.65599985      20.23755100       0.00140853       0.01016476       0.00326425
Ti       4.44595977       2.31952590      20.13910834       0.01216387       0.00285993      -0.00108905
Ti       3.92843717      -1.71411606      20.17989073      -0.01549764      -0.00882693      -0.00573516
Ti       6.83528494       2.45630690      21.60161938      -0.00025598       0.00799714      -0.01037042
Ti       2.90294772       0.41663038      21.69517842      -0.00516683      -0.00977641      -0.00951315
Ti       3.71862440       2.87938209      22.71152214       0.00756323       0.01609174       0.00281128
Ti       0.31536344       0.26273581      22.73600504       0.00056365      -0.00859965       0.00076485
Ti       5.80726855       4.64731109      23.10705861      -0.00529050      -0.00632937      -0.01022204
Ti       5.41312141       0.48352301      23.10556843       0.00486902       0.00479360      -0.00060348
Ti       2.23909219       0.76848327      24.47967135      -0.01048862       0.00472834      -0.00935836
Ti       7.14567843       2.41743683      24.43425976       0.00548240       0.00963962      -0.00812221
Ti       3.99378710      -1.20198206      25.19884668       0.00757211      -0.00496461      -0.00151617
Ti       4.28943603       2.42184479      25.28228880       0.00579215       0.00847364      -0.00401457
Cu       6.00921438       0.36964824      26.07388570       0.00164314       0.00628942       0.00169496
Ti       5.10050128       5.11287961      25.92880169      -0.00324445      -0.00503628       0.00267996
Ti       3.12665426       0.68112106      27.12835321       0.00209324       0.00006703       0.01143511
Ti       6.40989178       2.92408928      27.07579572       0.00113213       0.00107840      -0.00168271
Ti       0.41700499       0.69270133      27.79881482       0.00412555       0.00845620       0.00050997
Ti       3.75966114       3.39554045      27.79968420      -0.00262288       0.00866222      -0.00220310
Ti       5.47243097       0.80102874      28.75997798       0.00379356      -0.00262492       0.00771696
Ti       5.81077571       5.11100444      28.77947542       0.00141149       0.00245283       0.00162945
Ti       7.42391019       2.72287360      29.68464929       0.00238410       0.00021857       0.00076843
Ti       2.51964974       1.20416257      29.75370189       0.00322415       0.00618476      -0.00395905
Ti       4.63778948       3.00912843      30.47193059      -0.00123735       0.00755905       0.00412435
Ti       4.28035737      -1.09554194      30.53104621      -0.00044136       0.00670250       0.00296803
Ti       6.23376076       0.74271993      31.59458544      -0.00009245       0.00247279       0.00076384
Ti       5.20592619       5.62373629      31.59335193       0.00315556       0.00053741       0.00541385
Ti       3.52014321       0.94361421      32.35688772       0.00530466       0.00468792       0.00470516
Ti       6.78209381       3.44321732      32.32485949      -0.00078324       0.00456821      -0.00108818
Ti       4.15107323       3.58312143      33.23700033       0.00794165       0.00078144       0.00367325
Ti       5.01212078      -1.25814044      33.25003646      -0.00018534       0.00648451       0.00590276
Ti       2.27844728      -1.12172550      34.45795995      -0.00467351       0.00051767       0.00830667
Ti       5.62437559       1.29274824      34.45731109      -0.00332050       0.00188098       0.00578974
Ti       3.31380278       5.69660875      34.93239105       0.00596878       0.00377163      -0.00376122
Ti       2.82376585       1.63663401      34.96567450       0.00015655       0.00494257      -0.00444191
Ti       4.62869100       3.49261164      36.02821713      -0.00615372       0.00523101       0.00513391
Ti       4.67943238      -0.89758186      36.04083788       0.00436147      -0.00096682       0.00594223
Ti       2.03531380       3.49369725      37.31755978      -0.00140439      -0.00208149       0.00137954
Ti       1.56308083      -0.58682898      37.33050628      -0.00556860      -0.00370915       0.00363989
Ti       6.99804999       3.71547117      37.57902769      -0.00137429       0.00772200      -0.00643310
Ti       3.70423559       1.26952830      37.59767257       0.00382070       0.00695825      -0.00327735
Ti       4.48038393       3.66195555      38.82569503       0.00509132      -0.00451893      -0.00326620
Ti       4.91761559      -0.94318601      38.84011818      -0.00180789       0.00093743      -0.00488854
Ti       5.69230594       1.44361323      40.16393381      -0.00506498      -0.00338040      -0.00413231
Ti       2.39510836      -1.00177831      40.17870158      -0.00049532      -0.00554317      -0.00372326
Ti       3.39917648       5.85963459      40.27156550       0.00249001       0.00219528      -0.00755688
Ti       2.93839194       1.77480541      40.28958413       0.00046820       0.00700565      -0.00539230
Ti       4.57356577       3.65396464      41.60400482      -0.00503313      -0.00081363      -0.00440570
Ti       4.87137115      -0.86832373      41.62043849       0.00040889       0.00187117      -0.00345953
Ti       2.07998208       3.56751909      42.99503028      -0.00165371      -0.00875602       0.00165902
Ti       1.61845809      -0.51567805      43.01122198      -0.00500416      -0.00395789       0.00250498
Ti       7.05864800       3.78414803      42.98556973       0.00089450       0.00284395      -0.00114763
Ti       3.74257611       1.34757625      43.00033756       0.00542235       0.00170626      -0.00177097
Ti       4.58538178       3.67576300      44.37490206      -0.00103459      -0.00256089       0.00253908
Ti       4.88918986      -0.84870738      44.39085694       0.00057904       0.00216296       0.00176561
Ti       3.43105901       5.89802898      45.69605559       0.00285493       0.00085691       0.00265734
Ti       2.96736888       1.81549201      45.71167540      -0.00137858       0.00395714       0.00207154
