100
Lattice="4.4265 -2.555641 0.0 3.767997 6.526363 -0.031456 0.0 0.0 45.781652" Properties=species:S:1:pos:R:3:forces:R:3 job_name=CSL13-Zr-Zr-62-d-5.77 GB_type=CSL13 element=Zr system=Zr-62-d-5.77 distance=5.77 energy=-775.55305916 stress_kbar_3x3="_JSON [[-30.5334989, -1.85061238, -0.01722757], [-1.85061237, -34.2649634, 0.84247263], [-0.01722755, 0.84247261, -12.41156562]]" pbc="T T T"
Ti       2.46196004      -0.91391049       0.03328175       0.00144617      -0.00294482       0.00222976
Ti       5.75696522       1.53480444       0.01821961      -0.00310094      -0.00126315       0.00124451
Ti       4.97490020      -0.82196625       1.39684709      -0.00674121      -0.01016595       0.00910777
Ti       4.58190349       3.75600669       1.38133336      -0.00356913      -0.00444398       0.00854934
Ti       7.09027779       3.84207338       2.64342160       0.00212590       0.00118823       0.00326734
Ti       3.79746524       1.39282348       2.65884224      -0.00233933      -0.00234007       0.00410363
Ti       1.65400667      -0.45968135       2.88227938      -0.00968178      -0.00321168       0.00064515
Ti       2.13154461       3.61448346       2.86594432      -0.00222612      -0.00695387       0.00374692
Ti       4.71526493       3.63901363       4.16918248      -0.00442751       0.00255258      -0.00024664
Ti       4.81051340      -0.76669270       4.18546044       0.00170316      -0.00471098      -0.00214390
Ti       3.43743229       5.85659200       5.26082118       0.00096176       0.00261940      -0.00017422
Ti       2.94448184       1.79053093       5.27659304      -0.00052426       0.00272508       0.00194050
Ti       2.40052751      -0.96831173       5.74881772       0.00067525      -0.00269629      -0.00311495
Ti       5.74659813       1.45088940       5.73301742      -0.00309608       0.00094844      -0.00124367
Ti       4.28158265       3.75115191       6.95286234       0.00349848      -0.00101404      -0.00175059
Ti       5.12602203      -1.08723281       6.96849134      -0.00133511       0.00299348      -0.00182871
Ti       6.92372432       3.59298337       7.84887805      -0.00250704       0.00288786       0.00355973
Ti       3.66820129       1.12110669       7.86427134       0.00225425       0.00035305       0.00379326
Ti       6.37306671       0.88587324       8.59228989       0.00063028      -0.00090550      -0.00301801
Ti       1.59900998      -0.70924245       8.60815081      -0.00093777       0.00118370      -0.00190150
Ti       4.78875993       3.18650225       9.67763649       0.00128646       0.00128967      -0.00111642
Ti       4.38468383      -0.93067414       9.69302881       0.00348081       0.00111978      -0.00125990
Ti       3.18301715       5.41540637      10.46405395       0.00272098      -0.00213428      -0.00057980
Ti       2.69131739       1.34920416      10.48007059      -0.00097936      -0.00001114      -0.00184392
Ti       5.90045501       5.21003646      11.40900810      -0.00169199       0.00153064      -0.00380253
Ti       5.58260036       1.04202539      11.42569562       0.00305747      -0.00032425      -0.00322121
Ti       0.59815758       0.92741401      12.36048747       0.00438416       0.00254485       0.00042999
Ti       3.86753758       3.39304308      12.34573859       0.00307313       0.00266860       0.00176005
Ti       3.32011670       0.66442350      13.15497118       0.00467387      -0.00184602       0.00002426
Ti       6.70412107       3.06102360      13.13942066      -0.00115575       0.00054592       0.00027154
Ti       5.11011291       5.37486281      14.24157341       0.00434000       0.00047117      -0.00280423
Ti       6.12425715       0.43761717      14.25747670      -0.00126646       0.00653375      -0.00361015
Ti       4.56009200       2.66101494      14.95487191       0.00394747       0.00302565      -0.00198840
Ti       4.04984787      -1.39422876      14.97003475       0.00142727       0.00462220      -0.00327602
Ti       7.19247025       2.52316718      15.87140327       0.00046155       0.00182364      -0.00363898
Ti       2.61602400       0.81489168      15.88739806       0.00175736       0.00534230       0.00062216
Ti       5.75582326       4.82186704      17.09963179       0.00421877       0.00163169       0.00590302
Ti       5.32614301       0.71814354      17.11683128      -0.00022365       0.00289956       0.00193112
Ti       3.63596094       2.97217260      17.54670199      -0.00019183       0.00024378       0.00427146
Ti       0.35637921       0.51268448      17.55905398       0.00622871       0.00500405       0.00739239
Ti       2.91307524       0.52873795      18.67328565       0.00115263       0.00622043       0.00592346
Ti       6.79822626       2.63851601      18.65714880       0.00274878       0.00018314       0.00464276
Ti       4.95051335       5.22754938      19.95863247       0.00001819       0.00926586       0.00171711
Ti       1.65782101       2.77789511      19.97349282       0.00130835      -0.00108762      -0.00057425
Ti       4.41375865       2.44734721      20.17751192       0.00111509      -0.00042094      -0.00135075
Ti       3.94451392      -1.63015395      20.18941993       0.00476162       0.00413487      -0.00695684
Ti       6.92765366       2.53912012      21.43741930       0.00400549      -0.00047792      -0.00281288
Ti       2.76584458       0.58693960      21.45827359       0.00521967       0.01048139      -0.01167199
Ti       3.61473233       2.90011339      22.85866895       0.00340057       0.00494146      -0.00155367
Ti       0.31625616       0.46075209      22.87031369       0.00732730       0.00350691      -0.00102078
Ti       5.75311646       4.76195397      22.79690627      -0.00092901       0.00150078       0.00059733
Ti       5.28150453       0.68262706      22.80607502       0.00623531       0.00893557       0.00052436
Ti       2.80132212       0.56239008      24.22512879       0.00276497       0.01082476       0.01064908
Ti       6.91312489       2.56565142      24.19981931       0.01027302      -0.00077052       0.00721141
Ti       3.96541848      -1.61242361      25.56665162      -0.00722008      -0.00285663       0.00802445
Ti       4.42686975       2.43524593      25.54441741      -0.01289017       0.00127396      -0.01371835
Ti       1.69181839       2.78857418      25.60172238       0.01931221       0.00395661       0.00138139
Ti       4.96523057       5.22560621      25.63518005       0.00198156       0.01167392       0.01027235
Ti       2.83904314       0.56722197      27.03170679      -0.00686649      -0.00801206      -0.01296655
Ti       6.86190179       2.62699048      26.95919852       0.01106755       0.00873036       0.01083955
Ti       0.34159458       0.39412769      28.19706519      -0.01298754      -0.00554414      -0.00860366
Ti       3.69822890       3.03530419      28.19187253      -0.01260411       0.01137438      -0.00594709
Zr       5.32007042       0.67730148      28.55667371       0.01557775       0.00000492       0.00168162
Ti       5.82837177       4.81272242      28.55881934       0.00184892       0.00662901       0.00296086
Ti       7.16974925       2.57733170      29.88055041       0.00191396      -0.00279898      -0.01031773
Ti       2.55985675       0.83203452      29.88195797      -0.00079598       0.00204962       0.00037636
Ti       4.52206535       2.68406725      30.83860443       0.01118565       0.00559472       0.00656131
Ti       4.06849927      -1.35889870      30.79838848      -0.00065433      -0.01224059      -0.00385077
Ti       6.14115359       0.47981106      31.58063909       0.00158880       0.00757010      -0.00116405
Ti       5.12370335       5.37784213      31.45521594      -0.00700146      -0.00438821       0.00644581
Ti       3.32485044       0.69841930      32.60951094      -0.00052651       0.00258090       0.00693540
Ti       6.70335271       3.11809181      32.60986988       0.00102926      -0.00613245      -0.00470407
Ti       3.89734042       3.44823638      33.42896525       0.00399717      -0.00614365      -0.01167916
Ti       0.60110217       0.97224907      33.41660101       0.00049644      -0.00399914       0.00578646
Ti       5.91604088       5.27539961      34.35166255      -0.00211960      -0.00544420      -0.00462274
Ti       5.58444246       1.09697574      34.37583939      -0.00103142      -0.00050415       0.00131291
Ti       3.20056998       5.48270137      35.27493907      -0.00310038      -0.00083184      -0.00816568
Ti       2.70312815       1.41887725      35.27156678      -0.00171477      -0.00645064      -0.00014341
Ti       4.78546884       3.26062592      36.08765946       0.00119618      -0.00828127       0.00195076
Ti       4.42877375      -0.88330824      36.09835643      -0.00354640       0.00171436       0.00321815
Ti       6.39789349       0.93521851      37.21697530      -0.00855911      -0.00583402      -0.00152646
Ti       1.61196806      -0.65248716      37.23971687       0.00205901       0.00885567      -0.00381336
Ti       6.95718290       3.65645754      37.86589387      -0.01166957      -0.00181524      -0.00513169
Ti       3.68753544       1.19280149      37.87234015      -0.00003796       0.00255176      -0.00239306
Ti       4.34335640       3.76710568      38.82263341      -0.00274432      -0.00542929       0.00373893
Ti       5.08866835      -1.01326813      38.83863141      -0.00265334       0.00774595      -0.00216366
Ti       5.74074884       1.48056158      40.09520946      -0.00852722      -0.00065576      -0.00024638
Ti       2.41588176      -0.95106996      40.11164074      -0.00149462      -0.00114286       0.00107157
Ti       3.44253221       5.89125468      40.44876751      -0.00082062      -0.00549584       0.00921041
Ti       2.95708501       1.81877984      40.46328385       0.00331560       0.00338667       0.00073491
Ti       4.67600691       3.67357145      41.61671551      -0.00498354      -0.00473108       0.00385453
Ti       4.84998286      -0.77756806      41.63344019      -0.00067261      -0.00016449       0.00677684
Ti       2.12890123       3.62023063      42.95398521      -0.00014099      -0.01105298      -0.00295107
Ti       1.64998063      -0.45497244      42.96942683      -0.00553494      -0.01414575       0.00091898
Ti       7.09115502       3.84660651      43.08231072      -0.00257519       0.00066955       0.00300038
Ti       3.79188306       1.39966100      43.09721674       0.00339111       0.00256811      -0.00324407
Ti       4.59909146       3.74596872      44.39755567      -0.00118324      -0.00856294      -0.01142963
Ti       4.95410903      -0.80860924      44.41255347      -0.00715032      -0.00879620      -0.00598754
Ti       3.46954009       5.95008873      -0.02447558      -0.00666558      -0.00478857       0.00163479
Ti       3.00318501       1.86899312      -0.00784096      -0.00324867      -0.01370883      -0.00147304
