100
Lattice="4.4265 -2.555641 0.0 3.767997 6.526363 -0.031456 0.0 0.0 45.781652" Properties=species:S:1:pos:R:3:forces:R:3 job_name=CSL13-Cu-Cu-62-d-5.77 GB_type=CSL13 element=Cu system=Cu-62-d-5.77 distance=5.77 energy=-770.37567476 stress_kbar_3x3="_JSON [[-37.64295612, -3.67460423, 2.24139153], [-3.67460425, -39.89835971, 0.68909321], [2.2413916, 0.6890932, -21.14352343]]" pbc="T T T"
Ti       2.45136951      -0.95607571       0.03956919      -0.00283310      -0.00352922       0.00435076
Ti       5.74634171       1.49107036       0.02260102       0.00020587      -0.00416235       0.00360465
Ti       4.97972550      -0.86785457       1.37795687       0.00095033      -0.00110869       0.00224877
Ti       4.55496363       3.72804224       1.36177563      -0.00083801      -0.00290815       0.00435113
Ti       7.07776828       3.80941503       2.59854903      -0.00089963      -0.00489165      -0.00111444
Ti       3.78478399       1.35987330       2.61509152      -0.00218694      -0.00214695      -0.00265826
Ti       1.64577147      -0.49372763       2.89158730      -0.00269513      -0.00985262      -0.00071803
Ti       2.11649553       3.58630838       2.87728471      -0.00221290      -0.00713159      -0.00013250
Ti       4.72478086       3.59805627       4.16928344      -0.00281920      -0.00169833      -0.00106059
Ti       4.77580003      -0.78193738       4.18327049      -0.00033832      -0.00460716      -0.00142015
Ti       3.41781350       5.82182762       5.22756821      -0.00428609      -0.00730494      -0.00029793
Ti       2.92401536       1.75159699       5.24383407      -0.00484392      -0.00706455      -0.00059927
Ti       2.37576898      -0.99368188       5.77505362      -0.00553633      -0.00815999      -0.00090137
Ti       5.73995035       1.41464963       5.75897086      -0.00538626      -0.00853279      -0.00123292
Ti       4.23081457       3.72844832       6.95618388      -0.00212701      -0.00202228      -0.00019792
Ti       5.12477786      -1.13800079       6.97351171      -0.00785291      -0.00039660      -0.00032561
Ti       6.89237395       3.53806640       7.83268743      -0.00676190      -0.00603705      -0.00122032
Ti       3.63388063       1.07704631       7.85280126      -0.00614663      -0.00487113       0.00062504
Ti       6.33845610       0.84699395       8.63327700      -0.00562817      -0.00441544       0.00032205
Ti       1.57576569      -0.75197994       8.64567094      -0.00494036      -0.00384140      -0.00144504
Ti       4.76464050       3.13574645       9.68352360      -0.00685538      -0.00343533      -0.00143263
Ti       4.32731226      -0.96980313       9.70042426      -0.00594533      -0.00270011      -0.00074708
Ti       3.13051491       5.37366143      10.47965807      -0.00630319      -0.00371193      -0.00334944
Ti       2.65750434       1.28776723      10.49436600      -0.00906118      -0.00473621      -0.00091940
Ti       5.85192869       5.15903645      11.47723203      -0.00683032      -0.00278997      -0.00126773
Ti       5.52624053       1.00096594      11.48440630      -0.00547925      -0.00474294       0.00013806
Ti       0.54487855       0.88000484      12.36925286      -0.00463524      -0.00448437      -0.00382418
Ti       3.79902639       3.33249817      12.34734783      -0.00559196      -0.00492118      -0.00250198
Ti       3.23456908       0.63291554      13.20184016      -0.00607207      -0.00186907      -0.00236966
Ti       6.67638073       2.99681973      13.18458615      -0.00375994      -0.00657010      -0.00028788
Ti       5.02263466       5.35075789      14.33427340       0.00159784      -0.00320091      -0.00027479
Ti       6.06697697       0.39717373      14.35178244      -0.00056356       0.00385500       0.00079903
Ti       4.47546774       2.61806422      14.96032755      -0.00144985      -0.00653052      -0.00459717
Ti       3.96690266      -1.45617126      14.97188119      -0.00221529       0.00072775      -0.01063773
Ti       7.06541355       2.53240400      15.95609163      -0.01157501      -0.00747322      -0.00017251
Ti       2.59510912       0.75601256      15.96495385       0.01136379       0.00360138      -0.00145076
Ti       5.69541418       4.80202570      17.24467432       0.00206007       0.00043113       0.00082838
Ti       5.22657021       0.71686470      17.24979753       0.00981058       0.00747759       0.00340429
Ti       3.54873590       2.94094589      17.56187259      -0.00117103       0.00158285      -0.00258747
Ti       4.69542180      -2.06602002      17.57685271      -0.00218515       0.00349819      -0.00406943
Ti       2.78129131       0.54675098      18.77863536       0.00811189       0.01310170       0.00096532
Ti       6.76078347       2.60411558      18.75835870       0.00186307      -0.01596875      -0.00339579
Ti       4.85102440       5.23630472      20.12908311      -0.00080996       0.00385948       0.00149009
Ti       6.00392640       0.21160094      20.14196877       0.01034304       0.01025266      -0.00063681
Ti       4.32415566       2.43302083      20.20382470      -0.00506242      -0.00338399      -0.00937552
Ti       3.83936123      -1.63697664      20.22655145       0.00570193      -0.00165788      -0.00525178
Ti       6.78400213       2.55626117      21.54990206       0.00415488      -0.00008680       0.00482010
Ti       2.70478940       0.54766052      21.58183783      -0.00153977       0.00304053      -0.00142898
Ti       3.48794829       2.88299942      22.83817990      -0.00334190       0.00529199      -0.00309907
Ti       4.66383186      -2.12264961      22.87748850       0.00134220      -0.00329160       0.00220284
Ti       5.65982225       4.75010764      22.98968718       0.00138528       0.00555853       0.00518444
Ti       5.15509251       0.67723603      23.04075804       0.01502182       0.00619251      -0.00181535
Ti       2.58671840       0.61870699      24.44214130      -0.00492435      -0.00094139      -0.01025040
Ti       6.90011488       2.46030177      24.35669082       0.00743503       0.00400347       0.00122245
Ti       3.82086317      -1.66736742      25.46832427      -0.00276067       0.00767844       0.00156662
Ti       4.37198923       2.54822460      25.39329885       0.00947191       0.01643187      -0.00406722
Ti       5.87957962       0.29391718      25.88444616       0.00658745       0.00743360       0.00330966
Ti       4.86359208       5.23677925      25.91482892      -0.00150497      -0.00960231       0.00003194
Ti       3.29796863       0.28060020      27.21000510       0.01232123      -0.00044290      -0.00928113
Ti       6.64466021       2.80761776      27.17117515       0.00480175       0.00550382      -0.01628835
Ti       0.69317610       0.79198787      27.93102348      -0.01190731       0.00688290       0.00593694
Ti       3.72370585       2.91127408      27.98511221       0.00267152       0.01479631      -0.00442630
Cu       5.50787975       0.77821248      28.82314572       0.00291636       0.00184649       0.00198648
Ti       5.68557430       4.94082264      28.71706200       0.00586924       0.00807042       0.00247654
Ti       3.11066619       4.99397102      29.79874558      -0.00779415       0.00977867      -0.00872272
Ti       2.77841722       1.04310900      29.84788681       0.00064044       0.00547351      -0.00229182
Ti       4.83142516       2.92209007      30.52659751       0.01116952       0.00165811      -0.00013087
Ti       4.19345500      -1.28753251      30.53633151       0.00605425       0.01002031      -0.00291624
Ti       6.18398227       0.58574754      31.53801026       0.00254492       0.01188722       0.01075438
Ti       5.28330440       5.58153664      31.54834556       0.00150415      -0.00133593       0.00064818
Ti       3.56759716       0.79394240      32.46243591       0.00756220      -0.00083579      -0.00184475
Ti       6.84262400       3.26977502      32.38395766       0.00208398       0.00249864      -0.00772691
Ti       4.10632501       3.52244553      33.20944953       0.00827544       0.00238494       0.00362640
Ti       5.09753395      -1.37751870      33.27021287      -0.00035515       0.01481090       0.00090705
Ti       2.28883672      -1.19946659      34.41732011      -0.00281646       0.00037003       0.00341458
Ti       5.71072339       1.22989963      34.37654142      -0.00398610      -0.00351477       0.00272057
Ti       3.36878315       5.62048233      35.01139864      -0.00229133      -0.01288181      -0.00728074
Ti       2.85187510       1.54909155      35.03645790       0.00890565       0.00877377      -0.00069356
Ti       4.73460932       3.41743837      35.99488030      -0.00685823      -0.00102741       0.00515924
Ti       4.66500891      -0.88866044      36.00676707       0.01176056       0.00692180       0.00580469
Ti       2.07572344       3.47868699      37.26598675      -0.00359093      -0.00536449       0.00624028
Ti       1.62076515      -0.60868324      37.27580242       0.00253644      -0.00250120       0.00295429
Ti       7.03964048       3.69990643      37.61460957      -0.00271327      -0.00369551       0.00361811
Ti       3.75744310       1.24327294      37.64398749      -0.00026035       0.00277422       0.00378005
Ti       4.50303659       3.66970404      38.79977217      -0.00094889      -0.01061987       0.00557323
Ti       4.99309025      -0.96940075      38.81362584       0.00545824       0.00882544       0.00842768
Ti       5.73426424       1.44191723      40.12137068      -0.00394780      -0.00471343       0.00064585
Ti       2.44164884      -1.01144200      40.13938331       0.00140018      -0.00170997       0.00434818
Ti       3.44808243       5.85305734      40.28006928      -0.00252724       0.00187428       0.00639849
Ti       2.97896246       1.77189459      40.29827142       0.00671405       0.00369132      -0.00109066
Ti       4.61959371       3.64674749      41.58887818       0.00229979      -0.00319547      -0.00063600
Ti       4.90079811      -0.86581636      41.60239487       0.00077159       0.00109449       0.00181703
Ti       2.11379251       3.56437138      42.96554994      -0.00273245      -0.00202278       0.00327476
Ti       1.64882628      -0.51768035      42.98040589       0.00071536      -0.00069236       0.00508027
Ti       7.08987787       3.78464197      42.98304936       0.00488219       0.00220362       0.00298007
Ti       3.77726229       1.34552705      43.00255145       0.00229411       0.00496605       0.00246818
Ti       4.60797374       3.68262464      44.36151520       0.00213002      -0.00093332       0.00316462
Ti       4.92269968      -0.85202375      44.37736554       0.00175911       0.00037305       0.00159006
Ti       3.45576028       5.90519601      45.69548617      -0.00073951       0.00211115       0.00455888
Ti       2.99230480       1.82232878      45.70994907       0.00399051      -0.00134171       0.00464450
