100
Lattice="4.4265 -2.555641 0.0 3.767997 6.526363 -0.031456 0.0 0.0 45.781652" Properties=species:S:1:pos:R:3:forces:R:3 job_name=CSL13-Zn-Zn-59-d-4.19 GB_type=CSL13 element=Zn system=Zn-59-d-4.19 distance=4.19 energy=-768.26275943 stress_kbar_3x3="_JSON [[-34.47541715, -1.78606973, 0.50038468], [-1.78606972, -39.79396671, 3.15514568], [0.50038468, 3.15514566, -19.37548357]]" pbc="T T T"
Ti       2.46101015      -0.91424069       0.02200692      -0.00220592      -0.00362039       0.00222054
Ti       5.75769453       1.53460629       0.00667677      -0.00330621      -0.00546438       0.00257464
Ti       4.97952307      -0.82546503       1.38007013      -0.00415005      -0.00606934       0.00371368
Ti       4.57715990       3.75784249       1.36377820      -0.00534733      -0.00506393       0.00643291
Ti       7.09140231       3.84238190       2.62281179      -0.00301089      -0.00404709       0.00060953
Ti       3.79694109       1.39326256       2.63812259      -0.00163986      -0.00375952       0.00079965
Ti       1.65340893      -0.46141722       2.87771835      -0.00506779      -0.00271355       0.00108451
Ti       2.13015714       3.61356426       2.86153095      -0.00088734      -0.00330965       0.00203871
Ti       4.71960623       3.63510280       4.16330046      -0.00527515      -0.00533913      -0.00265470
Ti       4.80519555      -0.76512030       4.17984806      -0.00301669      -0.00563146      -0.00165168
Ti       3.43462025       5.85299791       5.25107174      -0.00142762      -0.00608310      -0.00005187
Ti       2.94314821       1.78650429       5.26686312      -0.00328651      -0.00335267      -0.00075371
Ti       2.39702561      -0.97223110       5.75606892      -0.00335622      -0.00344250      -0.00008318
Ti       5.74548056       1.44574274       5.74083615      -0.00147192      -0.00452469      -0.00026480
Ti       4.27321984       3.74543395       6.95575839      -0.00450868      -0.00360009      -0.00028517
Ti       5.12775200      -1.09857735       6.97101019      -0.00235356      -0.00584145       0.00073982
Ti       6.92059511       3.57911175       7.85405912      -0.00135846      -0.00465289      -0.00091617
Ti       3.65893147       1.10928290       7.86865207      -0.00271428      -0.00518822      -0.00144308
Ti       6.36728051       0.87423018       8.61234164      -0.00067427      -0.00289861      -0.00156656
Ti       1.59383814      -0.72104912       8.62845714      -0.00221263      -0.00530299      -0.00041182
Ti       4.78620390       3.16539075       9.68764703      -0.00295798      -0.00502883      -0.00030046
Ti       4.37275477      -0.94554259       9.70395937      -0.00375348      -0.00432785      -0.00373974
Ti       3.16862623       5.39519596      10.48435865      -0.00202174      -0.00312926      -0.00468212
Ti       2.68498355       1.32480969      10.49972180       0.00162961      -0.00251652      -0.00066252
Ti       5.89227358       5.18381670      11.44546922       0.00097686      -0.00428741      -0.00273620
Ti       5.56850412       1.01916861      11.46269351      -0.00249789      -0.00402865      -0.00086178
Ti       0.58543584       0.89576086      12.37685341      -0.00298171      -0.00276824      -0.00137142
Ti       3.85372253       3.36333025      12.36297679      -0.00057842      -0.00400829      -0.00755092
Ti       3.29660654       0.63936330      13.19217069       0.00008809      -0.00126721      -0.00576804
Ti       6.70020328       3.02485972      13.17658601      -0.00023201      -0.00336753      -0.00065573
Ti       5.08947995       5.34549031      14.29562573      -0.00055596      -0.00232484      -0.00229777
Ti       6.11806374       0.40059800      14.31183025      -0.00067230      -0.00461251      -0.00031298
Ti       4.53741474       2.61847856      14.97393903       0.00001403      -0.00531148       0.00083019
Ti       4.03350208      -1.43734270      14.99230976       0.00278089      -0.00213973      -0.00335575
Ti       7.15479547       2.50006933      15.92799816      -0.00349465      -0.00051751      -0.00085107
Ti       2.62348737       0.76648181      15.94173870       0.00004091      -0.00193472       0.00480684
Ti       5.75400110       4.77572898      17.17704866       0.00046618      -0.00143858       0.00129603
Ti       5.30394172       0.68734160      17.20033327      -0.00207814      -0.00090044      -0.00283996
Ti       3.61742741       2.92398925      17.57540646       0.00536516      -0.00372801       0.00002363
Ti       0.33632798       0.46520729      17.59079856       0.00640493      -0.00116998       0.00026435
Ti       2.87842586       0.49574500      18.74507407       0.00009378      -0.00121065      -0.00025149
Ti       6.80731817       2.58179193      18.73457113      -0.00123683       0.00035450       0.00118369
Ti       4.93016096       5.17773602      20.05208162       0.00345368       0.00005107      -0.00077150
Ti       1.64742909       2.72477256      20.07820826       0.00040800      -0.00127841       0.00100725
Ti       4.39802623       2.38792975      20.21861578       0.00611857      -0.00129460       0.00090617
Ti       3.92549711      -1.68765152      20.23128826       0.00255135      -0.00266105       0.00078644
Ti       6.89182165       2.48333679      21.52517991       0.00289489      -0.00154794       0.00984055
Ti       2.76016218       0.51308393      21.52955951      -0.00274814       0.00109388       0.00592093
Ti       3.58665545       2.82878055      22.89485849      -0.00615841       0.00304804       0.00645768
Ti       0.27125616       0.38369189      22.92050025       0.00996630      -0.00176034      -0.00979892
Ti       5.73075607       4.66777358      22.93826370       0.00360008      -0.00548197       0.00608098
Ti       5.26342044       0.62720716      22.94622429       0.01669865       0.00699828       0.00549084
Ti       2.71685726       0.48931394      24.29394252      -0.00421147       0.00328891      -0.00644605
Ti       6.94599503       2.46799712      24.31703728      -0.00869131      -0.00613742      -0.00793155
Ti       3.97142930      -1.62809210      25.54792693       0.00121244       0.00466267       0.00586902
Ti       4.42060514       2.27232496      25.48013440       0.01095235       0.00300981      -0.00381210
Ti       1.72679372       2.72223935      25.77501610       0.00759287       0.00216024       0.00458404
Ti       4.95024430       5.09192357      25.84835484       0.01046487      -0.00254201       0.00214216
Ti       2.94796216       0.51397014      27.08813928       0.00492272       0.00334755       0.00641019
Zn       6.60629336       2.73696169      27.04285983      -0.00396074       0.00112398      -0.00725928
Ti       0.38577358       0.48010038      28.09737249       0.00535715       0.00625396      -0.00049451
Ti       3.72211463       3.12507154      28.00688612       0.00635494       0.00521313      -0.00251328
Ti       5.30785610       0.74502872      28.65148977       0.00236208      -0.00125144       0.00572238
Ti       5.86291164       4.90652968      28.69271185       0.01091827       0.00860565       0.01045801
Ti       7.22630422       2.58615017      29.78646906       0.00846785       0.01100889       0.00440814
Ti       2.54502170       1.02035107      29.83479975      -0.00533790       0.00272435      -0.00630497
Ti       4.58495559       2.77283610      30.66842287       0.00498005       0.00848494      -0.00072886
Ti       4.14152195      -1.25972518      30.64301915       0.00682884       0.01384113       0.00280364
Ti       6.14267079       0.59279642      31.52127709      -0.00202445       0.00935377       0.00757879
Ti       5.15214017       5.46613239      31.46244834       0.00536828       0.00735924      -0.00125415
Ti       3.37858204       0.76336357      32.52978393       0.00610610       0.00249311      -0.00436673
Ti       6.72573362       3.23923845      32.49878310      -0.00025555       0.01469993      -0.00482535
Ti       3.96372280       3.51093330      33.31173508       0.00945289       0.00916555       0.00163117
Ti       0.63382177       1.07767219      33.30956258       0.00004306       0.01331027      -0.00774141
Ti       2.17679657      -1.17659351      34.35252779       0.00318077       0.00734749       0.00412036
Ti       5.61052814       1.17237580      34.34221604      -0.00012733       0.00825669       0.00374526
Ti       3.23803771       5.54432560      35.15598360       0.00247290       0.00863564      -0.00603543
Ti       2.74338497       1.50977487      35.16635695       0.00531419       0.01312767      -0.00646070
Ti       4.77599621       3.34402981      36.01587846      -0.00520288       0.01147621      -0.00118168
Ti       4.49490635      -0.85395714      36.02916386       0.00752080       0.00176806       0.00014298
Ti       6.42145753       0.96856552      37.19970735       0.00054120       0.00250606       0.00642961
Ti       1.60591188      -0.60404621      37.21612419      -0.00440584       0.00712492       0.00848186
Ti       6.98313208       3.71075583      37.75608967       0.00034255       0.00489762      -0.00940467
Ti       3.70472768       1.24051111      37.76619122      -0.00128554       0.00484971      -0.00651346
Ti       4.39656167       3.76047615      38.78685579       0.00530018      -0.00587909       0.00102402
Ti       5.05020541      -0.96431927      38.80155577      -0.00801597       0.00531429       0.00155902
Ti       5.72851986       1.49575458      40.08038629      -0.00703634      -0.00311808       0.00750249
Ti       2.42659830      -0.94663721      40.09768369      -0.00426817      -0.00159923       0.00739750
Ti       3.44210782       5.90523856      40.36586788      -0.00082368       0.00230653      -0.00334503
Ti       2.96388139       1.83224811      40.38198707      -0.00269069      -0.00027437      -0.00675625
Ti       4.65354732       3.69143681      41.58899049      -0.00600980      -0.00328934       0.00521110
Ti       4.87098278      -0.78720928      41.60642323      -0.00123072      -0.00386781       0.00437419
Ti       2.12646437       3.62016957      42.93968360      -0.00751593      -0.00690625       0.00142952
Ti       1.65056241      -0.45710432      42.95507422      -0.00603353      -0.00567481       0.00304015
Ti       7.09275075       3.84512361      43.03165392      -0.00406001       0.00215782      -0.00422768
Ti       3.78927821       1.40254322      43.04568622       0.00098594      -0.00143901      -0.00468920
Ti       4.60518765       3.74041166      44.37264857      -0.00374874      -0.00592637      -0.00501029
Ti       4.94621298      -0.80607558      44.38753710      -0.00638519      -0.00465063      -0.00345375
Ti       3.46732881       5.94997508      45.72484280      -0.00331653      -0.00149321      -0.00113760
Ti       3.00506903       1.86617284      45.74040432      -0.00471788      -0.00342435      -0.00039006
