100
Lattice="4.4265 -2.555641 0.0 3.767997 6.526363 -0.031456 0.0 0.0 45.781652" Properties=species:S:1:pos:R:3:forces:R:3 job_name=CSL13-Zr-Zr-60-d-5.27 GB_type=CSL13 element=Zr system=Zr-60-d-5.27 distance=5.27 energy=-775.32387424 stress_kbar_3x3="_JSON [[-30.96597706, -2.04448349, 0.46189291], [-2.04448351, -34.03123253, 1.2755837], [0.46189298, 1.27558367, -12.09014508]]" pbc="T T T"
Ti       2.47588518      -0.90641668       0.02843530      -0.00117054      -0.00127608      -0.00179087
Ti       5.76495848       1.54553720       0.01264272       0.00005082      -0.00028939      -0.00122948
Ti       4.98316204      -0.81336976       1.39777103      -0.00017683      -0.00149930      -0.00031184
Ti       4.59108953       3.76358897       1.38205016      -0.00147048      -0.00188476      -0.00093377
Ti       7.09786544       3.85126138       2.63916815      -0.00063623      -0.00200726       0.00425445
Ti       3.80476521       1.40143884       2.65499923      -0.00053381      -0.00117775       0.00379991
Ti       1.65935770      -0.45193004       2.87862219      -0.00078117      -0.00197220       0.00067657
Ti       2.13914369       3.62231176       2.86304955      -0.00067549      -0.00144292       0.00024496
Ti       4.72411271       3.64503135       4.16764328      -0.00212415      -0.00244008       0.00129294
Ti       4.81306588      -0.75708304       4.18333640      -0.00137514      -0.00367407       0.00180300
Ti       3.44197653       5.86198741       5.25012037      -0.00118558      -0.00264543       0.00217383
Ti       2.94739116       1.79655080       5.26584072      -0.00191521      -0.00225830       0.00208914
Ti       2.40282400      -0.96179822       5.74714606      -0.00070462      -0.00276291      -0.00025457
Ti       5.75186988       1.45556066       5.73157681      -0.00202273      -0.00180411      -0.00030158
Ti       4.27547681       3.75663260       6.94629927      -0.00112340      -0.00288882      -0.00069661
Ti       5.13373795      -1.08967933       6.96210674      -0.00269547      -0.00299450      -0.00097908
Ti       6.91982671       3.58938221       7.83544552      -0.00042781      -0.00226895      -0.00141826
Ti       3.66656375       1.11668096       7.85126425      -0.00222833      -0.00140430      -0.00137176
Ti       6.37076295       0.88197725       8.58934518      -0.00088392      -0.00161712      -0.00041763
Ti       1.59650110      -0.71228185       8.60486609      -0.00142426      -0.00231352      -0.00049602
Ti       4.78793301       3.17416749       9.66453301      -0.00086106      -0.00186037       0.00164863
Ti       4.37308845      -0.93710324       9.68049950      -0.00109557      -0.00149004       0.00109672
Ti       3.17357339       5.40221719      10.45080242      -0.00032902      -0.00107520       0.00119899
Ti       2.68285218       1.33473015      10.46664781       0.00070982      -0.00039280       0.00202398
Ti       5.89137651       5.19202939      11.40495595       0.00049034       0.00098946       0.00218491
Ti       5.56883670       1.02728352      11.42083514       0.00140595       0.00053330       0.00265982
Ti       0.58802586       0.90530751      12.34291794       0.00051544       0.00176680       0.00249579
Ti       3.85070465       3.37346741      12.32693182       0.00194513       0.00054379       0.00345163
Ti       3.30170033       0.64361395      13.14432842       0.00131602       0.00292490       0.00197192
Ti       6.69380382       3.03696727      13.12866801       0.00146643       0.00082696       0.00179507
Ti       5.09009797       5.35261813      14.24093989       0.00176083       0.00317146       0.00315670
Ti       6.11165378       0.41210922      14.25559321       0.00307673       0.00345574       0.00183990
Ti       4.54076684       2.63155690      14.92987411       0.00202585       0.00473717       0.00092078
Ti       4.03056501      -1.42350645      14.94643564       0.00316685       0.00278066       0.00237922
Ti       7.16189156       2.50662010      15.86392613       0.00321893       0.00596897       0.00066665
Ti       2.61217392       0.78287168      15.88043335       0.00284751       0.00277811       0.00057296
Ti       5.74588562       4.79771361      17.11149480       0.00227219       0.00408382       0.00125602
Ti       5.30688523       0.70031962      17.12516917       0.00211043       0.00335110       0.00002472
Ti       3.61953702       2.94542313      17.51937017       0.00316644       0.00519050      -0.00141698
Ti       0.34012557       0.48835424      17.53584671       0.00319481       0.00242556      -0.00079078
Ti       2.88764274       0.52010723      18.67115495      -0.00057861       0.00408269      -0.00017229
Ti       6.80187825       2.60820512      18.65487455       0.00250219       0.00796384      -0.00206413
Ti       4.93751847       5.21764059      19.97598260       0.00333245       0.00704056      -0.00390029
Ti       1.64964445       2.76108177      19.98696779       0.00121158       0.00433224       0.00027439
Ti       4.40498202       2.43194937      20.14920631       0.00286608       0.00567748       0.00188407
Ti       3.92995712      -1.64767178      20.16472682       0.00406692       0.00531788      -0.00047536
Ti       6.90494943       2.52662773      21.43512804       0.00166308       0.00143454       0.00016580
Ti       2.77643406       0.57272176      21.45441386       0.00326273       0.00473720       0.00126710
Ti       3.61139717       2.89410073      22.82903044       0.00263687       0.00280444       0.00166984
Ti       0.31333095       0.44047388      22.82512487       0.00170173       0.00663258       0.00125507
Ti       5.75823550       4.74976057      22.82383699      -0.00115333       0.00236524       0.00294486
Ti       5.27300782       0.67306545      22.83331180       0.00029548       0.00215443       0.00073488
Ti       2.77440884       0.59598465      24.23210014       0.00182929       0.00380990       0.00018684
Ti       6.91185034       2.53144497      24.20768610       0.00441055       0.00092846       0.00062038
Ti       3.93883260      -1.63311797      25.45380102       0.00417929       0.00268313       0.00531007
Ti       4.41156450       2.47226852      25.53040314       0.00155290       0.00701742      -0.00225179
Ti       1.65039665       2.78686608      25.68354459       0.00046122       0.00273696      -0.00032836
Ti       4.97415202       5.23533357      25.66412855       0.00329858       0.00394165      -0.00111274
Ti       2.96729721       0.55968900      27.00750970      -0.00723192       0.00448650       0.00301539
Ti       6.82764551       2.62860146      26.97724738       0.01235801       0.01100836       0.00478754
Zr       0.37635676       0.60478736      28.23705840       0.01850492      -0.00232672       0.00178067
Ti       3.61027383       2.99756218      28.20726299       0.00490285       0.00217138       0.00421769
Ti       5.34524343       0.88027724      28.60596462      -0.00096602      -0.00475377      -0.00166228
Ti       5.74794754       4.79431179      28.56547406       0.00369800       0.00300591      -0.00393332
Ti       7.13371689       2.59713592      29.85945526       0.00542694       0.00673335      -0.00474508
Ti       2.74834811       0.82017328      29.87301431      -0.00162157       0.00268199      -0.00200929
Ti       4.54773322       2.72555978      30.85459987      -0.00373843       0.00214929       0.00101086
Ti       4.02088062      -1.38969218      30.93206920       0.00121248       0.00022005      -0.00512081
Ti       6.12220781       0.46696656      31.45447590       0.00241569      -0.00363021      -0.00209607
Ti       5.08868327       5.45990839      31.46470977       0.00079700      -0.00062169       0.00061509
Ti       3.30149778       0.72628360      32.63483901      -0.00464342       0.00182006      -0.00256803
Ti       6.74586615       3.07334136      32.62353085      -0.00252346      -0.00724501       0.00122914
Ti       3.86077665       3.41904625      33.45019932      -0.00314978      -0.00482970       0.00155774
Ti       0.60519793       0.97523533      33.48769693      -0.00174574      -0.00389934       0.00226826
Ti       5.91074451       5.24754688      34.30999113      -0.00035219      -0.00579658      -0.00197129
Ti       5.59648455       1.09269397      34.33733029      -0.00258280      -0.00508918      -0.00243288
Ti       3.20189884       5.45947588      35.30213864      -0.00432439      -0.00290018       0.00100061
Ti       2.71739552       1.38552750      35.32120217      -0.00312374      -0.00391759       0.00187084
Ti       4.82138693       3.24000922      36.10063638      -0.00256317      -0.00784246      -0.00175623
Ti       4.39528710      -0.87707529      36.12124179      -0.00381646      -0.00251943       0.00261386
Ti       6.39652447       0.94326594      37.19995061      -0.00394091      -0.00561615      -0.00092592
Ti       1.63734623      -0.65806445      37.21335192      -0.00218881      -0.00046746      -0.00009406
Ti       6.96009021       3.63999454      37.90917011      -0.00128392      -0.00176332       0.00191216
Ti       3.69567080       1.18556684      37.92057266      -0.00668406      -0.00615374      -0.00106308
Ti       4.32757452       3.79528797      38.81966977      -0.00433105      -0.00063360       0.00001879
Ti       5.13845373      -1.02405540      38.83654892      -0.00305056      -0.00759567      -0.00158538
Ti       5.77195387       1.48907902      40.08003157      -0.00265249      -0.00329153      -0.00200857
Ti       2.42503833      -0.93019024      40.09518890      -0.00251154      -0.00211446      -0.00282794
Ti       3.46263743       5.90166663      40.48590353      -0.00269279      -0.00215936      -0.00099260
Ti       2.97273763       1.82963510      40.49797823      -0.00484713      -0.00412437       0.00066988
Ti       4.71193065       3.68056805      41.60992640      -0.00208897      -0.00249953      -0.00174375
Ti       4.85372891      -0.75104417      41.62727785      -0.00528329      -0.00544497      -0.00390176
Ti       2.14784119       3.63150704      42.94594246      -0.00240938      -0.00027842      -0.00189659
Ti       1.66693600      -0.44135228      42.96221652      -0.00160771      -0.00207756      -0.00320251
Ti       7.10721717       3.86170076      43.09883083      -0.00213604      -0.00226830      -0.00556343
Ti       3.81249945       1.41374020      43.11381255      -0.00197784      -0.00173264      -0.00365313
Ti       4.61026338       3.76027233      44.39559463      -0.00137255      -0.00261109      -0.00277906
Ti       4.97180403      -0.79961077      44.41178167      -0.00138500      -0.00211395      -0.00364438
Ti       3.48273786       5.95842706      -0.01910790      -0.00110306      -0.00152343      -0.00266616
Ti       3.01226850       1.87903806      -0.00383850       0.00017564      -0.00018426      -0.00300319
