100
Lattice="4.4265 -2.555641 0.0 3.767997 6.526363 -0.031456 0.0 0.0 45.781652" Properties=species:S:1:pos:R:3:forces:R:3 job_name=CSL13-V-V-56-d-2.88 GB_type=CSL13 element=V system=V-56-d-2.88 distance=2.88 energy=-775.40871751 stress_kbar_3x3="_JSON [[-37.52419813, -1.34777492, 0.28453021], [-1.34777496, -41.27705454, 0.72915011], [0.28453023, 0.7291501, -17.6845245]]" pbc="T T T"
Ti       2.45053545      -0.93901673       0.00546457       0.00057312      -0.00115587      -0.00263102
Ti       5.74226198       1.51159316      -0.01014349      -0.00312437      -0.00019740      -0.00242639
Ti       4.95711805      -0.84245965       1.38272424      -0.00121265       0.00022189       0.00053457
Ti       4.57330607       3.73011554       1.36705751      -0.00097337      -0.00306575       0.00011817
Ti       7.07923751       3.82049337       2.63896808      -0.00141076       0.00274893      -0.00026299
Ti       3.78350791       1.37295261       2.65438733       0.00256643       0.00016279      -0.00156074
Ti       1.63905889      -0.48149536       2.86239238      -0.00158801      -0.00108615       0.00425698
Ti       2.11927031       3.59192792       2.84679342       0.00046380      -0.00226517       0.00328701
Ti       4.69681382       3.62517029       4.16033074      -0.00229296       0.00065676      -0.00034283
Ti       4.80564165      -0.78907581       4.17569998       0.00032080      -0.00146098      -0.00146756
Ti       3.42700602       5.84351602       5.26249233       0.00267748       0.00032377       0.00168341
Ti       2.93614087       1.77638832       5.27802461       0.00072586       0.00305491       0.00180674
Ti       2.39132082      -0.98420672       5.74009718       0.00025226      -0.00033613       0.00356217
Ti       5.73528779       1.43654223       5.72450246      -0.00068297       0.00257965       0.00354798
Ti       4.27872361       3.73848327       6.95362650      -0.00080814      -0.00125951      -0.00017717
Ti       5.11303717      -1.09446676       6.96995640      -0.00104082      -0.00156584       0.00097884
Ti       6.91943130       3.58233928       7.85750767       0.00376529       0.00024224       0.00239276
Ti       3.65791339       1.11450669       7.87306698      -0.00112920       0.00234813       0.00330116
Ti       6.36422459       0.87907849       8.60038839       0.00269047       0.00009117       0.00188948
Ti       1.59461497      -0.71768109       8.61607756      -0.00175150       0.00241170       0.00189204
Ti       4.78401959       3.17842267       9.68540916      -0.00004575      -0.00083056       0.00111865
Ti       4.37595598      -0.93677570       9.70169827      -0.00062063      -0.00119950       0.00133733
Ti       3.17302977       5.40887081      10.47885618      -0.00133490       0.00321430       0.00136049
Ti       2.68668359       1.33856255      10.49461954       0.00289376      -0.00025620       0.00214783
Ti       5.89268769       5.20444451      11.43819317       0.00355505      -0.00024045       0.00151510
Ti       5.57656382       1.03570749      11.45444107      -0.00226288       0.00284178       0.00091653
Ti       0.59231755       0.92199372      12.37139175      -0.00210790       0.00073468       0.00114019
Ti       3.85948115       3.38606228      12.35506813       0.00245971       0.00005172      -0.00063455
Ti       3.30319304       0.66882854      13.18178794       0.00112269       0.00280711       0.00121303
Ti       6.71278841       3.05176829      13.16563249       0.00186797       0.00327301       0.00217549
Ti       5.10714989       5.38381363      14.29362127      -0.00166995       0.00322552       0.00009096
Ti       6.12553757       0.44419075      14.31020124       0.00162804      -0.00304814       0.00001665
Ti       4.55136037       2.66563736      14.96263655      -0.00093889      -0.00033213      -0.00246087
Ti       4.04977107      -1.39438221      14.97968044       0.00163708      -0.00227763      -0.00229896
Ti       7.16694413       2.55925011      15.91576694       0.00169446       0.00336950      -0.00304889
Ti       2.64951546       0.81684627      15.93044911       0.00381519       0.00244987       0.00018196
Ti       5.77497984       4.85032836      17.17340524       0.00217618       0.00368418      -0.00674909
Ti       5.33125522       0.75717011      17.19065190      -0.00490867       0.00168767      -0.00189090
Ti       3.64786167       2.99905762      17.56089744       0.00003599      -0.00578172       0.00291366
Ti       0.36582988       0.54478179      17.57709921       0.00449389       0.00024383      -0.00415338
Ti       2.91076323       0.58937050      18.73054290       0.00515247       0.00844301       0.00853766
Ti       6.83733511       2.66518148      18.71765460      -0.00563907      -0.00281026       0.00297429
Ti       4.97180619       5.28205301      20.03070763       0.00952874      -0.00068779      -0.00256695
Ti       1.68276344       2.82900011      20.05427076       0.00664643       0.00140093       0.00027086
Ti       4.43616817       2.50084770      20.20867696      -0.00717125      -0.00902838      -0.00225451
Ti       3.96655109      -1.57857944      20.22055254      -0.00971677       0.00995057      -0.00064100
Ti       6.93645010       2.59344691      21.50425976      -0.00604865      -0.00097102       0.00503195
Ti       2.81557521       0.64611035      21.51268174       0.00458836       0.01053922      -0.01138288
Ti       3.64490785       2.96507011      22.90139344      -0.00123356      -0.00310270      -0.00466905
Ti       0.32908010       0.52293945      22.89039559      -0.00370445      -0.00059038       0.00638156
Ti       5.77438232       4.81505885      22.86983236       0.00408732      -0.00304239       0.00059442
Ti       5.30975950       0.74211843      22.92887493      -0.00518397       0.00257059      -0.00229924
Ti       2.78559502       0.66600357      24.26516242      -0.00190523      -0.00490572      -0.00720687
Ti       6.95836347       2.59884772      24.27841728       0.00663842       0.00413563       0.00581476
Ti       4.10154079      -1.48389290      25.58357406       0.00163799      -0.00406443       0.00410890
Ti       4.44872089       2.46353538      25.58478843       0.01251548       0.00255415       0.00420896
V        1.73174661       2.88178713      25.68335156      -0.00620042      -0.00096449       0.00071410
Ti       5.04191337       5.24846126      25.68822270      -0.00203125       0.00260050       0.00265075
Ti       2.86998086       0.63911859      27.02852951      -0.00438465      -0.00228801       0.00441169
Ti       6.88696830       2.64777181      26.98317233       0.01114401       0.00210374      -0.00072294
Ti       0.36781502       0.56280345      28.22764270      -0.00842028      -0.00443861      -0.00407224
Ti       3.64975406       3.01966079      28.22490963      -0.00521854       0.00390082       0.00809264
Ti       5.33702489       0.79372428      28.44809339       0.00477967       0.00154297      -0.00023328
Ti       5.79615741       4.85614628      28.52634469       0.00421606      -0.00403557      -0.00059085
Ti       7.12759190       2.58845968      29.79941145      -0.00189184       0.00356785      -0.00552532
Ti       2.69884412       0.81497397      29.82341933       0.00504591       0.00439989       0.00659570
Ti       4.54095016       2.64885876      30.81817114      -0.00811724      -0.00309955       0.00034653
Ti       4.06091251      -1.39323074      30.81001640      -0.00610552      -0.00019942       0.00060406
Ti       6.14260652       0.45061664      31.39681465       0.00412534      -0.00097163      -0.00308875
Ti       5.11331526       5.38440835      31.39384813      -0.00011441      -0.00053337       0.00001372
Ti       3.28681772       0.68545185      32.58127641       0.00125849       0.00108200      -0.00390479
Ti       6.72381583       3.04028408      32.56282994       0.00078989      -0.00104937       0.00075722
Ti       3.86002265       3.39388450      33.39868222      -0.00189361      -0.00407760      -0.00263430
Ti       0.58968747       0.91768716      33.40705301       0.00020661       0.00064961       0.00155428
Ti       5.89293194       5.21563596      34.26729526       0.00134195      -0.00111725       0.00128557
Ti       5.58116119       1.03915145      34.27151667      -0.00281657      -0.00104028       0.00165183
Ti       3.17071676       5.42007119      35.25081435      -0.00071936      -0.00150667      -0.00059921
Ti       2.68864318       1.35068018      35.26442729       0.00093098      -0.00246560       0.00144906
Ti       4.79344923       3.19125425      36.04947958      -0.00023450      -0.00205273      -0.00033672
Ti       4.37956405      -0.91769451      36.06352438       0.00056572      -0.00048183       0.00043765
Ti       6.36518263       0.90237219      37.15105841      -0.00112134      -0.00166382       0.00042535
Ti       1.60421789      -0.70211229      37.16958543      -0.00009151       0.00129481       0.00022508
Ti       6.93159324       3.60408889      37.85740340       0.00212514      -0.00014494      -0.00165410
Ti       3.66051254       1.13753573      37.87407937      -0.00100791      -0.00067911      -0.00228211
Ti       4.29996633       3.74853963      38.77814862      -0.00202417      -0.00204249      -0.00141650
Ti       5.10551552      -1.06665871      38.79281310      -0.00200904      -0.00198653      -0.00158545
Ti       5.73599265       1.44733707      40.03976964      -0.00136265      -0.00126657      -0.00191725
Ti       2.39416438      -0.97342381      40.05606106       0.00138368      -0.00208694      -0.00144380
Ti       3.42967082       5.85877432      40.44489304       0.00098196       0.00141051      -0.00046346
Ti       2.94110010       1.78996454      40.46144852      -0.00071778       0.00131291      -0.00046862
Ti       4.68170669       3.64143871      41.57858919      -0.00281784      -0.00225543       0.00330985
Ti       4.82243963      -0.79110045      41.59368662      -0.00193817      -0.00421510      -0.00042513
Ti       2.11887067       3.59515386      42.91504936       0.00202578      -0.00282686      -0.00259753
Ti       1.63754412      -0.47860622      42.93066169      -0.00217019      -0.00166086      -0.00316236
Ti       7.07928716       3.82405126      43.07047764      -0.00237077       0.00227265      -0.00319255
Ti       3.78234276       1.37660545      43.08627336       0.00252137       0.00240595      -0.00194921
Ti       4.58222055       3.72554081      44.37117006      -0.00091235      -0.00419911      -0.00402554
Ti       4.94738439      -0.83493071      44.38679798      -0.00086276      -0.00135212      -0.00331406
Ti       3.45712370       5.92578764      45.74664332       0.00259638      -0.00066597      -0.00234072
Ti       2.98975444       1.84506373      45.76294572      -0.00018772       0.00236656      -0.00275499
