100
Lattice="4.4265 -2.555641 0.0 3.767997 6.526363 -0.031456 0.0 0.0 45.781652" Properties=species:S:1:pos:R:3:forces:R:3 job_name=CSL13-Al-Al-59-d-4.19 GB_type=CSL13 element=Al system=Al-59-d-4.19 distance=4.19 energy=-771.5632878 stress_kbar_3x3="_JSON [[-34.21933909, -1.58151276, 0.46280483], [-1.58151279, -39.28593016, 2.75170499], [0.46280485, 2.75170499, -18.16717233]]" pbc="T T T"
Ti       2.44061761      -0.93674383       0.04350650      -0.00445889      -0.00265909       0.00122878
Ti       5.73813553       1.51132702       0.02869229      -0.00236832      -0.00363329       0.00079049
Ti       4.96566322      -0.85229962       1.38964659       0.00080291      -0.00068870      -0.00222268
Ti       4.55233681       3.73821388       1.37427812      -0.00199565      -0.00017214      -0.00292647
Ti       7.07279542       3.81767355       2.62046445      -0.00267092      -0.00193965       0.00120423
Ti       3.77858923       1.36847699       2.63547108      -0.00098242      -0.00471561       0.00018997
Ti       1.63746492      -0.48430661       2.89353205      -0.00058788      -0.00255792       0.00095173
Ti       2.11163454       3.59160087       2.87686593      -0.00536430      -0.00078300       0.00072965
Ti       4.71039562       3.60749973       4.17060484      -0.00227216      -0.00246068       0.00086112
Ti       4.78155765      -0.78404399       4.18748723      -0.00282523      -0.00295127       0.00101523
Ti       3.41724172       5.82498208       5.24589617       0.00057470       0.00294174      -0.00058209
Ti       2.92521582       1.75974401       5.26206928      -0.00175458       0.00262090      -0.00109998
Ti       2.37836659      -0.99381088       5.76548435      -0.00484397      -0.00516009      -0.00317390
Ti       5.73307295       1.42112489       5.75047465      -0.00299569      -0.00590043      -0.00259013
Ti       4.25180207       3.72492320       6.95792074       0.00060076      -0.00022388      -0.00683175
Ti       5.11941733      -1.12655437       6.97341088      -0.00102127       0.00003977      -0.00825498
Ti       6.90384728       3.55489837       7.84563798      -0.00178561      -0.00156495      -0.00396382
Ti       3.64493657       1.08268767       7.86004306      -0.00095582      -0.00231764      -0.00332833
Ti       6.35157665       0.85310355       8.61261946      -0.00094674      -0.00028886       0.00139173
Ti       1.58244842      -0.74499007       8.62901041      -0.00186858      -0.00168711       0.00046243
Ti       4.77544385       3.14514446       9.68443903      -0.00113484      -0.00198245       0.00130707
Ti       4.35966309      -0.96469362       9.70022944      -0.00102660       0.00071255       0.00110428
Ti       3.15737380       5.37866529      10.47379290      -0.00231656      -0.00694590       0.00396026
Ti       2.67550918       1.30757771      10.48968491      -0.00172211      -0.00361512       0.00530094
Ti       5.88209718       5.17130813      11.43873914       0.00013247      -0.00306849       0.00334628
Ti       5.56189210       1.00412178      11.45635898      -0.00009482      -0.00481160       0.00285100
Ti       0.57892312       0.88380410      12.37005162       0.00099292      -0.00629842      -0.00416952
Ti       3.84538455       3.35316530      12.35468495      -0.00233205      -0.00358786      -0.00434375
Ti       3.29041649       0.63066352      13.17946507      -0.00670316      -0.00253735      -0.00139672
Ti       6.69452403       3.01559996      13.16440166       0.00061273      -0.00790681       0.00118820
Ti       5.08669831       5.33879068      14.28500475      -0.00252289      -0.00184638       0.00459239
Ti       6.11317843       0.39545422      14.30085693       0.00060461      -0.00492219       0.00388779
Ti       4.53527484       2.61195813      14.96252989      -0.00226281      -0.00604175      -0.00437412
Ti       4.02971044      -1.44123729      14.98079084      -0.00019393      -0.00966045      -0.00263771
Ti       7.15245102       2.49532775      15.91328450      -0.00332589       0.00079598       0.00427029
Ti       2.61945806       0.76302311      15.92881911       0.00379386      -0.01070244       0.00567443
Ti       5.75253592       4.77276765      17.16487566       0.00001437       0.00054887       0.00900425
Ti       5.30290395       0.68302788      17.18881731      -0.00225490      -0.00101192       0.00825098
Ti       3.61743679       2.91989847      17.56148991      -0.00053952       0.00169286      -0.00154774
Ti       0.33653161       0.46126669      17.57597006       0.00025941      -0.00270150      -0.00279622
Ti       2.87694963       0.49321916      18.72792856      -0.00594708       0.00184321       0.01009084
Ti       6.80804159       2.57866987      18.71846609       0.00398929      -0.00239965       0.00834788
Ti       4.93122533       5.17750053      20.04412736       0.00315213       0.00368020       0.00164222
Ti       1.65029790       2.72330161      20.06711117       0.00317749       0.00015849       0.00251892
Ti       4.40023164       2.38385917      20.19781553      -0.00226148      -0.00016597      -0.00535322
Ti       3.92550520      -1.68657413      20.21443656      -0.00011844      -0.00497677      -0.00623144
Ti       6.89071448       2.48643433      21.51038690      -0.00259015      -0.00050290      -0.01028607
Ti       2.76357406       0.50787431      21.51818161      -0.00157959       0.00123350      -0.00409305
Ti       3.58630581       2.83093360      22.86875068       0.00038787      -0.00218082       0.00368096
Ti       0.27933657       0.38568542      22.88832784       0.00595514       0.00756285      -0.00277063
Ti       5.73876132       4.67456461      22.92851251      -0.00415914      -0.00165756       0.00342372
Ti       5.26556970       0.62819216      22.93685131       0.00589721      -0.01166611       0.00068999
Ti       2.70953708       0.50016678      24.29130310      -0.00472129       0.00842177       0.00692160
Ti       6.95952913       2.46553404      24.29786967      -0.00032881      -0.00156631       0.01331841
Ti       3.99698980      -1.62431123      25.53363893       0.01028242       0.00060915      -0.00098900
Ti       4.42253450       2.28342199      25.44217566       0.01454588       0.00535696      -0.00014257
Ti       1.73142984       2.75650346      25.78431323      -0.01234294      -0.00373722       0.00525461
Ti       4.96169061       5.08232646      25.88263044       0.00347146       0.00150679      -0.00158103
Ti       2.97691422       0.51613565      27.09055669      -0.00290529       0.00158973      -0.00662445
Al       6.61535384       2.75739159      27.04014986       0.00672822      -0.00154881      -0.00712387
Ti       0.41327787       0.49443019      28.08448922       0.00310127       0.00616659      -0.00461241
Ti       3.76586109       3.13061600      28.01308885       0.00269936       0.00499550       0.00708500
Ti       5.34996970       0.75198765      28.65963500       0.00788649       0.00471207       0.00013069
Ti       5.89577158       4.93192596      28.72608345       0.00119735       0.00402107      -0.00206059
Ti       7.26485253       2.61223043      29.77986360       0.00853815       0.00980898      -0.00708934
Ti       2.56196368       1.05744834      29.83700005      -0.00483951       0.00833076      -0.01145045
Ti       4.60898088       2.80041109      30.67536838       0.00252336       0.01184108       0.00555297
Ti       4.19894165      -1.21143012      30.64491917       0.00654021       0.00109718      -0.00605035
Ti       6.18316990       0.63438600      31.54873945       0.00114506       0.00691191      -0.00282356
Ti       5.17479868       5.49533182      31.49167717       0.00130560       0.00652525      -0.00321452
Ti       3.41193568       0.80049281      32.52120466       0.00379253       0.00885544       0.00030650
Ti       6.74539406       3.29975094      32.48352582       0.00723765       0.01296624      -0.00294387
Ti       4.01225735       3.55174371      33.31888348       0.00757324      -0.00003318       0.00039304
Ti       0.65296455       1.12360758      33.30949500       0.00219453       0.00920011      -0.00459794
Ti       2.21129943      -1.13026459      34.39173429      -0.00302811      -0.00079759      -0.00118590
Ti       5.62282266       1.21982802      34.37734064      -0.00388388       0.00523664       0.00418187
Ti       3.25806522       5.59458579      35.12756474       0.00207634       0.00267574      -0.00210421
Ti       2.77780595       1.56907651      35.13385591       0.00641127       0.00866960      -0.00004694
Ti       4.76002817       3.40188367      36.02961126      -0.00939234       0.00285154       0.00020039
Ti       4.55385326      -0.84036772      36.03752242       0.00480568       0.00288621       0.00530256
Ti       6.43481322       0.98506696      37.24794484       0.00005704      -0.00195252       0.00313330
Ti       1.59500935      -0.57649088      37.26527411       0.00076378       0.00028579      -0.00259642
Ti       6.99482392       3.74212119      37.72322452      -0.00361075      -0.00620356       0.00048082
Ti       3.70583160       1.26852572      37.73118193      -0.00007414       0.00205075      -0.00036621
Ti       4.42590123       3.74140029      38.80932412       0.00291097      -0.00589374       0.00137611
Ti       5.00281624      -0.93767188      38.82812395       0.00135660      -0.00060831       0.00157713
Ti       5.70737328       1.49044716      40.12023378      -0.00571615      -0.00155637      -0.00183357
Ti       2.41520150      -0.95642263      40.13956327       0.00143532      -0.00331996      -0.00148471
Ti       3.42446750       5.89985400      40.34400388      -0.00579171       0.00768270       0.00399644
Ti       2.95145847       1.82485158      40.36021958       0.00500048      -0.00250476       0.00334917
Ti       4.61604767       3.68530081      41.60690510       0.00301733      -0.00350409      -0.00117029
Ti       4.86869250      -0.81335194      41.62513795      -0.00546440       0.00007983      -0.00223812
Ti       2.10271469       3.60088724      42.96911169      -0.00056661       0.00095707      -0.00061957
Ti       1.63122535      -0.47931837      42.98512835       0.00081959      -0.00025673      -0.00056907
Ti       7.07263305       3.82340339      43.02501540      -0.00108399       0.00160594       0.00070325
Ti       3.76614814       1.38238154      43.03832924      -0.00199521       0.00008988      -0.00146344
Ti       4.59065501       3.71311733      44.38179819      -0.00121312       0.00079023      -0.00143992
Ti       4.91721482      -0.82466023      44.39747819       0.00035287       0.00001453       0.00016344
Ti       3.44573281       5.92644889      45.72181378       0.00050707       0.00122106       0.00270837
Ti       2.98433541       1.84188620      45.73821466      -0.00148271       0.00053286       0.00330287
