100
Lattice="4.4265 -2.555641 0.0 3.767997 6.526363 -0.031456 0.0 0.0 45.781652" Properties=species:S:1:pos:R:3 job_name=CSL13-V-V-62-d-5.77 GB_type=CSL13 element=V system=V-62-d-5.77 distance=5.77 energy=-775.34463781 pbc="T T T"
Ti       2.47152877      -0.90392939       0.00751176
Ti       5.76638317       1.54257619      -0.00822303
Ti       4.98482352      -0.80940451       1.37374025
Ti       4.59283751       3.76828012       1.35940468
Ti       7.09809986       3.85685813       2.62452295
Ti       3.80864420       1.40434015       2.64030922
Ti       1.66253092      -0.45063467       2.86630182
Ti       2.13733386       3.62578837       2.85072798
Ti       4.72538472       3.65030287       4.15844196
Ti       4.81643206      -0.75285978       4.17408220
Ti       3.44291205       5.86673818       5.25307370
Ti       2.95064403       1.80002102       5.26867850
Ti       2.40562884      -0.95892317       5.74965875
Ti       5.75206584       1.45933602       5.73359995
Ti       4.28083880       3.75911074       6.95177189
Ti       5.13256803      -1.08378657       6.96750375
Ti       6.92512634       3.59116793       7.84901896
Ti       3.66535914       1.12138836       7.86442223
Ti       6.37293744       0.88507565       8.60562998
Ti       1.59795273      -0.70891451       8.62082243
Ti       4.78928617       3.17613905       9.68164736
Ti       4.37487563      -0.93480880       9.69767122
Ti       3.17193199       5.40364163      10.47753234
Ti       2.68523064       1.33374879      10.49390313
Ti       5.89188408       5.19238890      11.43915349
Ti       5.56862153       1.02764678      11.45540202
Ti       0.58731101       0.90545693      12.36966086
Ti       3.85236251       3.37141819      12.35446380
Ti       3.29514014       0.64824347      13.18225207
Ti       6.69943037       3.03192864      13.16815590
Ti       5.08736032       5.35556898      14.28936519
Ti       6.11532357       0.41358795      14.30436899
Ti       4.53718188       2.63292707      14.96485482
Ti       4.03401698      -1.42873465      14.98061416
Ti       7.15188840       2.51700578      15.91831141
Ti       2.62301309       0.78326426      15.93411334
Ti       5.74985616       4.80226376      17.17239003
Ti       5.30774094       0.71082986      17.18789962
Ti       3.62187404       2.95280757      17.56377454
Ti       0.34181258       0.49167672      17.58376363
Ti       2.88153670       0.53013618      18.73747567
Ti       6.81036856       2.61502583      18.72058390
Ti       4.94062791       5.22438747      20.04204967
Ti       1.65077017       2.77534234      20.05769897
Ti       4.40632537       2.44042500      20.20897668
Ti       3.93098740      -1.63813097      20.22585333
Ti       6.90633712       2.54477121      21.50663655
Ti       2.77605827       0.57739926      21.52330703
Ti       3.61005076       2.90762598      22.89654739
Ti       0.30247649       0.46199988      22.90299106
Ti       5.74991190       4.76233360      22.88885988
Ti       5.27123108       0.68500876      22.90990161
Ti       2.77103857       0.60669379      24.28906845
Ti       6.91962262       2.55720112      24.27910062
Ti       3.95275976      -1.61206505      25.55410759
Ti       4.42539538       2.47671401      25.59843488
Ti       1.65799096       2.80841174      25.76776354
Ti       4.95157613       5.26168013      25.74617920
Ti       2.94782245       0.54781797      27.07066501
Ti       6.82111911       2.68140725      27.06861724
Ti       4.81820259      -1.82523281      28.21414930
Ti       3.57316651       2.96842805      28.20616199
V        5.34762915       0.84900570      28.52839011
Ti       5.68494492       4.86488812      28.59457947
Ti       7.17259779       2.54704132      29.80394253
Ti       2.68364901       0.79789617      29.85630866
Ti       4.56996331       2.69059489      30.76115014
Ti       4.03615699      -1.40389790      30.78727431
Ti       6.10353928       0.45994756      31.33933210
Ti       5.11030739       5.40783727      31.45920871
Ti       3.34491085       0.68583388      32.57498650
Ti       6.71247066       3.05515241      32.54804305
Ti       3.86318474       3.40172687      33.34768168
Ti       0.62318371       0.96867933      33.37468882
Ti       5.91476420       5.23403319      34.28188986
Ti       5.61312493       1.06362161      34.28871672
Ti       3.22264067       5.44942509      35.21210774
Ti       2.71479722       1.37667588      35.25036379
Ti       4.80549687       3.23211466      36.03377300
Ti       4.42354110      -0.89832017      36.03910909
Ti       6.40678643       0.92142934      37.16314429
Ti       1.62760457      -0.66928232      37.17402197
Ti       6.96673825       3.64047174      37.81806817
Ti       3.69995354       1.17593525      37.84483183
Ti       4.35253734       3.76217644      38.77202162
Ti       5.11775241      -1.02665649      38.78312100
Ti       5.75668974       1.47859698      40.04350038
Ti       2.42856549      -0.95324153      40.05982718
Ti       3.45878656       5.88951658      40.41119650
Ti       2.97187567       1.82213018      40.42620907
Ti       4.69373526       3.67811483      41.57707145
Ti       4.85887455      -0.77062380      41.59042130
Ti       2.14170247       3.62601312      42.91825996
Ti       1.66260029      -0.44995333      42.93458766
Ti       7.10267410       3.85590795      43.05129181
Ti       3.80785839       1.40731149      43.06968336
Ti       4.61272144       3.75698723      44.36727570
Ti       4.96632994      -0.80107527      44.38602046
Ti       3.48304840       5.96262234      45.73237901
Ti       3.01133427       1.88059290      45.74920319
