100
Lattice="4.4265 -2.555641 0.0 3.767997 6.526363 -0.031456 0.0 0.0 45.781652" Properties=species:S:1:pos:R:3:forces:R:3 job_name=CSL13-Zr-Zr-55-d-2.65 GB_type=CSL13 element=Zr system=Zr-55-d-2.65 distance=2.65 energy=-775.35568228 stress_kbar_3x3="_JSON [[-30.61099336, -2.10386399, 0.28892431], [-2.10386399, -34.43147242, 0.95125994], [0.28892427, 0.95125994, -12.29398123]]" pbc="T T T"
Ti       2.47624076      -0.90322064       0.02379749       0.00099472       0.00024366      -0.00088690
Ti       5.76609040       1.54828091       0.00802138      -0.00031748       0.00097926      -0.00048356
Ti       4.98632602      -0.80997495       1.39067716      -0.00206514      -0.00177541      -0.00043718
Ti       4.59169938       3.76873653       1.37495823      -0.00040851      -0.00267642      -0.00067844
Ti       7.09988826       3.85638354       2.63046065      -0.00016685      -0.00333239       0.00067760
Ti       3.80799380       1.40611945       2.64614029      -0.00302490      -0.00255873       0.00099197
Ti       1.66210520      -0.44733565       2.87356570       0.00029858       0.00064435       0.00132950
Ti       2.14132030       3.62707372       2.85796495       0.00022399       0.00071870       0.00093220
Ti       4.72872856       3.65024953       4.16216112       0.00019612      -0.00533998       0.00198513
Ti       4.81491993      -0.75037418       4.17770765      -0.00500129      -0.00334144       0.00156272
Ti       3.44462555       5.86709222       5.24036497      -0.00239312      -0.00333410      -0.00036848
Ti       2.95024008       1.80165591       5.25601925      -0.00163806      -0.00300623       0.00003586
Ti       2.40458722      -0.95482588       5.74220272       0.00042638      -0.00463445       0.00083605
Ti       5.75631424       1.46072972       5.72668589      -0.00357417      -0.00209459       0.00072310
Ti       4.27463778       3.76288219       6.93938361      -0.00339966      -0.00472995       0.00096458
Ti       5.13910940      -1.08704206       6.95499500      -0.00246447      -0.00481858       0.00096058
Ti       6.92050012       3.59180704       7.82358814       0.00153581      -0.00211253       0.00459836
Ti       3.66716875       1.11880744       7.83931351      -0.00277375      -0.00196239       0.00410320
Ti       6.37130342       0.88548819       8.58379968      -0.00017945      -0.00313468       0.00409795
Ti       1.59828683      -0.70969091       8.59883789      -0.00292766      -0.00346312       0.00508588
Ti       4.79119150       3.17228725       9.65472940      -0.00063091      -0.00115105       0.00378140
Ti       4.37103775      -0.93547950       9.67048253      -0.00090608      -0.00078805       0.00487777
Ti       3.17099225       5.40115892      10.44127710       0.00147072      -0.00180132       0.00031301
Ti       2.68320093       1.33370479      10.45774120       0.00151079      -0.00309489       0.00108530
Ti       5.89255028       5.18948353      11.40098596       0.00010151       0.00026938       0.00388188
Ti       5.56756643       1.02556716      11.41868039       0.00093603      -0.00273161       0.00247345
Ti       0.58680424       0.89913562      12.33272172       0.00203276       0.00212978       0.00220766
Ti       3.85010905       3.37001678      12.31608343       0.00104572       0.00310894       0.00216111
Ti       3.29760271       0.64172598      13.13944723       0.00060208       0.00204225      -0.00075765
Ti       6.69627502       3.02966842      13.12315288       0.00309001       0.00521644      -0.00210347
Ti       5.08936835       5.34782045      14.24205458       0.00438786       0.00490256      -0.00028339
Ti       6.11589466       0.40707189      14.25799711       0.00094399       0.00037509       0.00129008
Ti       4.53942149       2.62284196      14.91722509       0.00071412       0.00245383      -0.00074744
Ti       4.03136552      -1.42894634      14.93665360       0.00439087       0.00048600       0.00254492
Ti       7.15610787       2.50823841      15.86106501       0.00344221       0.00832597       0.00431313
Ti       2.62062054       0.77377865      15.87780968       0.00063772       0.00549775       0.00177792
Ti       5.75228675       4.79188726      17.11347423       0.00263815       0.00558881      -0.00070959
Ti       5.31197636       0.70108306      17.13462224      -0.00056044       0.00714355      -0.00017557
Ti       3.62267250       2.94094234      17.50656549       0.00499131       0.00336020      -0.00115699
Ti       0.34462347       0.48496355      17.52588288       0.00251902       0.00371207      -0.00062062
Ti       2.88787890       0.51647635      18.66537358       0.00058914       0.00390936      -0.00325776
Ti       6.82096480       2.60623514      18.65639367       0.00166645       0.00910067      -0.00195241
Ti       4.94282435       5.21264687      19.97723049       0.00055816       0.00681795       0.00131886
Ti       1.67357682       2.76267125      19.99775564       0.00188440       0.00019015       0.00521157
Ti       4.42074927       2.42166795      20.13045544       0.00379943       0.00864385       0.00118657
Ti       3.94160465      -1.64467217      20.16278374       0.00717986       0.00391642      -0.00516020
Ti       6.91112840       2.55113113      21.44959963       0.00255634       0.00214558      -0.00431664
Ti       2.77611459       0.56245699      21.45382854       0.00114434       0.00434391       0.00531524
Ti       3.60365622       2.88928707      22.76167999       0.00437018       0.00255639       0.00543230
Ti       0.30756208       0.47006489      22.85624071       0.00005466       0.00155135       0.00099705
Ti       5.74336742       4.75843973      22.83018404      -0.00133077       0.00681462       0.00306806
Ti       5.28767050       0.68180390      22.83947374      -0.00173593       0.00225721      -0.00673447
Ti       2.76894858       0.57402573      24.21584158       0.00184044       0.00954461       0.00185589
Ti       6.97851560       2.55113563      24.22070641       0.00108431       0.00297992       0.00175705
Ti       3.92478833      -1.60672966      25.57344638       0.00450174       0.00031382      -0.00147497
Zr       4.42716920       2.51327161      25.57001947      -0.00004753       0.00531334       0.00602015
Ti       1.63029908       2.74689391      25.71204107       0.01295192       0.00291898      -0.00021071
Ti       4.98479233       5.34168344      25.71111121      -0.00478012      -0.00586015      -0.00550529
Ti       2.86849740       0.57257592      27.08820879       0.00333924       0.01164358      -0.00418787
Ti       6.89894924       2.64144959      27.04703320      -0.00404109       0.00667405      -0.00062731
Ti       0.35334705       0.55813343      28.26322063       0.00065217      -0.00289088      -0.00047716
Ti       3.61315916       2.99344759      28.31991726       0.00632099       0.00325528      -0.01182507
Ti       5.30588131       0.78865449      28.59004685      -0.00095857       0.00130383       0.00447575
Ti       5.76852691       4.84576589      28.56802828      -0.00170745       0.00156877       0.00225227
Ti       7.12872442       2.60230135      29.85953915       0.00246510       0.00430605      -0.00029965
Ti       2.65318839       0.81401944      29.89182043       0.00601249       0.00250812       0.00176947
Ti       4.54123950       2.66983391      30.87170310      -0.00330543       0.00104839      -0.00006945
Ti       4.03893217      -1.38346293      30.85890439       0.00592401       0.00292519       0.00302721
Ti       6.13516435       0.46600573      31.47483856       0.00142303       0.00095885      -0.00313660
Ti       5.09881044       5.40377287      31.45954396      -0.00451237      -0.00264219      -0.00335129
Ti       3.30180234       0.69536284      32.63497664       0.00511817      -0.00572076       0.00376215
Ti       6.72953357       3.07648417      32.61937438      -0.00021671      -0.00063472       0.00281939
Ti       3.86606800       3.41663559      33.44987702       0.00133119      -0.00095282       0.00436075
Ti       0.60895131       0.95720448      33.44810574      -0.00721920      -0.00151904       0.00047614
Ti       5.90610968       5.24663332      34.31840904      -0.00025241       0.00016161      -0.00134931
Ti       5.58970975       1.08036055      34.33716958      -0.00112279      -0.00454981      -0.00160911
Ti       3.19947086       5.46056194      35.29499990      -0.00260226      -0.00553252      -0.00317038
Ti       2.70506337       1.38797386      35.30945988      -0.00048553      -0.00658957      -0.00541532
Ti       4.81389233       3.23688533      36.09526715       0.00143496      -0.00424973      -0.00085104
Ti       4.40129458      -0.87832264      36.10449977      -0.00460793      -0.00289174      -0.00032813
Ti       6.39761292       0.94188078      37.19689162      -0.00322262      -0.00399633      -0.00083232
Ti       1.63245551      -0.65535184      37.21762929      -0.00453219      -0.00166346      -0.00098508
Ti       6.95923047       3.64901984      37.89463837      -0.00003271      -0.00809367      -0.00343196
Ti       3.69673274       1.18599038      37.90675823      -0.00895093      -0.00303345      -0.00159472
Ti       4.33307412       3.79299496      38.81658604      -0.00721944      -0.00262275      -0.00510855
Ti       5.13013949      -1.01740070      38.83023378       0.00044003      -0.01028337      -0.00779437
Ti       5.76699199       1.49266029      40.07915571      -0.00275224      -0.00336805      -0.00726890
Ti       2.42706183      -0.93024893      40.09445349      -0.00267662      -0.00287969      -0.00636933
Ti       3.46198419       5.90403463      40.47133083      -0.00371912      -0.00325820       0.00103623
Ti       2.97191528       1.83411257      40.48650043      -0.00222253      -0.00676547       0.00069320
Ti       4.70776459       3.68441743      41.60678482      -0.00474355      -0.00280456      -0.00201875
Ti       4.85559120      -0.75163674      41.62341313      -0.00168965      -0.00462086      -0.00276414
Ti       2.14700030       3.63355006      42.94284913      -0.00081678      -0.00143289      -0.00177358
Ti       1.66552847      -0.43911121      42.95890200      -0.00004891      -0.00274727      -0.00234804
Ti       7.10643779       3.86287401      43.08844230      -0.00099781       0.00068676      -0.00247552
Ti       3.81103697       1.41561981      43.10393168       0.00014749      -0.00052923      -0.00255724
Ti       4.61182672       3.76084454      44.38892756      -0.00244516      -0.00073219      -0.00142347
Ti       4.96979579      -0.79643771      44.40475372      -0.00007735      -0.00236759       0.00009128
Ti       3.48294804       5.96144847      -0.03017609      -0.00104272       0.00071274       0.00372749
Ti       3.01331227       1.88196377      -0.01460662       0.00062764      -0.00115508       0.00321901
