100
Lattice="4.4265 -2.555641 0.0 3.767997 6.526363 -0.031456 0.0 0.0 45.781652" Properties=species:S:1:pos:R:3:forces:R:3 job_name=CSL13-Cu-Cu-57-d-2.88 GB_type=CSL13 element=Cu system=Cu-57-d-2.88 distance=2.88 energy=-770.27829282 stress_kbar_3x3="_JSON [[-37.31852417, -3.56472251, 2.95716311], [-3.56472252, -39.36242335, 1.4227054], [2.95716317, 1.42270538, -21.80013581]]" pbc="T T T"
Ti       2.44135898      -0.96680069       0.04901894      -0.00064152      -0.00518455       0.00398429
Ti       5.74028238       1.47718738       0.03329490      -0.00146065      -0.00141302       0.00341735
Ti       4.97458611      -0.88192733       1.38066917       0.00092711      -0.00312151       0.00369010
Ti       4.54424184       3.71681189       1.36475383      -0.00082711      -0.00111034       0.00325436
Ti       7.06981995       3.79349496       2.59675930      -0.00018071       0.00038975       0.00144909
Ti       3.77503139       1.34533301       2.61239836       0.00015202      -0.00052021       0.00304425
Ti       1.63923700      -0.50876704       2.89619799      -0.00369964      -0.00416578       0.00438584
Ti       2.10598116       3.57325726       2.88179600      -0.00090658      -0.00491583       0.00356407
Ti       4.71680258       3.58177567       4.17007741       0.00098725      -0.00314989       0.00200152
Ti       4.76441585      -0.79707555       4.18508791      -0.00157630      -0.00128260       0.00184413
Ti       3.40650446       5.80246660       5.22833423      -0.00129027      -0.00227980      -0.00073213
Ti       2.91469727       1.73471614       5.24351207      -0.00111954      -0.00381507      -0.00109931
Ti       2.36554607      -1.01174179       5.77984944      -0.00230682      -0.00217344       0.00374179
Ti       5.72894728       1.39718271       5.76325449      -0.00046523      -0.00393689       0.00403329
Ti       4.22235227       3.70705708       6.95890521      -0.00244842      -0.00151769       0.00175000
Ti       5.11674629      -1.16019595       6.97446181       0.00042808      -0.00265015       0.00244365
Ti       6.88611105       3.51381383       7.83742670      -0.00247303      -0.00352993      -0.00015592
Ti       3.61861542       1.05274290       7.85344737      -0.00233340      -0.00533951       0.00192081
Ti       6.32990323       0.82473503       8.63939190      -0.00423340      -0.00411648       0.00842825
Ti       1.56500167      -0.77705489       8.65461977      -0.00016094      -0.00385717       0.00696943
Ti       4.76104087       3.09910427       9.68408328      -0.00224862      -0.00247300       0.00355576
Ti       4.31551412      -0.99844535       9.69836034      -0.00486465       0.00145629       0.00375284
Ti       3.11529856       5.33658623      10.48749485      -0.00372207      -0.00417994      -0.00002646
Ti       2.64995240       1.25180451      10.49973661      -0.00367853      -0.00288641       0.00103515
Ti       5.84858431       5.11720473      11.49907558      -0.00512626      -0.00142692       0.00044653
Ti       5.51344587       0.95876245      11.51159803      -0.00328565      -0.00045137       0.00331126
Ti       0.52890918       0.82878172      12.36109847       0.00067082       0.00226807      -0.00648698
Ti       3.79085206       3.28897179      12.34493880      -0.00500276      -0.00372605      -0.00229415
Ti       3.20354290       0.60277856      13.21711759       0.00059020       0.00622134      -0.00357013
Ti       6.68261545       2.94346157      13.20402790      -0.00466913      -0.00653094      -0.00563471
Ti       5.01347333       5.31714878      14.38050127      -0.00343562      -0.00531383       0.00001161
Ti       6.06301514       0.35502337      14.40721131       0.00090772       0.00380573      -0.00126712
Ti       4.46043652       2.57214487      14.95357760      -0.00461772      -0.00739794      -0.00493994
Ti       3.95758048      -1.50660748      14.95709216      -0.00019972       0.00528342      -0.00530052
Ti       7.03120175       2.52130778      15.98615085      -0.01119377      -0.00825388       0.00337908
Ti       2.62790891       0.70524775      15.99283665       0.00341407       0.00879587      -0.00101209
Ti       5.71352756       4.77682703      17.30350133      -0.00412092      -0.00497748       0.00398936
Ti       5.21324083       0.70220146      17.32813769       0.00330572       0.01448679      -0.00088980
Ti       3.54232058       2.92387834      17.56561543      -0.01437423      -0.01098669      -0.00741003
Ti       0.25975275       0.45466504      17.55586927       0.00118703      -0.00163551       0.00121376
Ti       2.73385686       0.54719967      18.81245593       0.00310826       0.00696430      -0.00047788
Ti       6.76866829       2.56241254      18.81431347       0.00224149      -0.00632880      -0.00106050
Ti       4.79864330       5.21617348      20.24327343       0.00140640      -0.00358430      -0.00690182
Ti       6.00312011       0.19461894      20.22601033       0.00290355       0.00254824      -0.00699630
Ti       4.33977843       2.39106276      20.19251041      -0.00036404       0.00688041      -0.01470246
Ti       3.79858261      -1.66332798      20.16102022       0.00198394       0.00115258       0.00410694
Ti       6.69243429       2.58435249      21.70389040       0.00401835       0.00074402      -0.00588724
Ti       2.71923019       0.45702293      21.62965345      -0.00660507       0.00730329      -0.00397294
Ti       3.39938550       2.80961201      22.73059776       0.01127428       0.00572916       0.00257841
Ti       4.64592781      -1.99552508      22.73065243       0.00229775      -0.01173178       0.00513095
Ti       5.46369121       4.78332307      23.11362679       0.00780345       0.00337211      -0.00925213
Ti       5.12106227       0.69013523      23.12911547       0.00246343      -0.00074346      -0.00251859
Ti       2.53289214       0.72741609      24.45909390       0.00483192      -0.00687107      -0.00115410
Ti       2.89521500       4.69922561      24.48305902       0.00559196       0.00012584      -0.00943511
Ti       3.96893371      -1.78119592      25.29542781      -0.00182918       0.01509769      -0.00221911
Ti       4.76110677       2.70815184      25.19766766      -0.01105875      -0.00083407      -0.00009451
Ti       5.86104504       0.28568285      25.94304416      -0.00130191       0.00376107       0.00241529
Cu       5.09175863       5.22664966      26.06523257      -0.00237110      -0.00106297      -0.00275917
Ti       3.31415890       0.30814228      27.08458994       0.00862031       0.00902225       0.00228571
Ti       6.82791631       2.90734986      27.12820283      -0.00962910       0.00043771       0.00060130
Ti       0.64429669       0.84266890      27.81959490       0.00744948       0.00457732      -0.00396073
Ti       3.72105824       3.09571951      27.78233392       0.00175030      -0.00133042       0.00079607
Ti       5.50288656       0.93353979      28.76754375       0.00718997      -0.00289521       0.00643715
Ti       5.69998996       4.98423786      28.74393510       0.00437549      -0.00118230       0.00097035
Ti       3.12163291       5.16897035      29.74801431      -0.00028857       0.00232881      -0.00190058
Ti       2.66115615       1.11122583      29.68557103       0.00274804       0.00411687       0.00740895
Ti       4.69028816       3.00691129      30.51717867      -0.00721675       0.00027359       0.00307501
Ti       4.26888943      -1.17818725      30.48326647       0.00741318       0.01001908       0.00367299
Ti       6.25281821       0.63345783      31.58473688       0.00756507      -0.00029414       0.00677491
Ti       5.29015955       5.62083357      31.57676057       0.00375405       0.00410302       0.00016240
Ti       3.58413322       0.91008859      32.32983455       0.01012777       0.00826316       0.00202677
Ti       6.82283429       3.36002228      32.35402225       0.00068805       0.00439042      -0.00580342
Ti       4.15483297       3.56443400      33.22756191       0.00650394      -0.00073045      -0.00017877
Ti       5.02457022      -1.29288752      33.24886825       0.00371945       0.00531860      -0.00286027
Ti       2.31316057      -1.16441968      34.47243425       0.00365106       0.00628999      -0.00493218
Ti       5.66821114       1.26241645      34.42294263      -0.00288725      -0.00214961       0.00127871
Ti       3.36146420       5.67117702      34.95399705      -0.00016282       0.00099648      -0.00235124
Ti       2.85766417       1.58987366      34.94329320       0.00308360       0.00617399      -0.00334626
Ti       4.67150243       3.45452315      36.01510129      -0.00319817      -0.00380891      -0.00027247
Ti       4.72329357      -0.92026747      36.04033072       0.00120071       0.00383424      -0.00122095
Ti       2.07338258       3.47049152      37.30664228      -0.00383671      -0.00059525      -0.00157397
Ti       1.59654524      -0.60955399      37.33108850       0.00383813       0.00148681      -0.00441435
Ti       7.03192939       3.70060124      37.57639396      -0.00071129      -0.00632172       0.00461511
Ti       3.73779827       1.24603449      37.58876684       0.00164804       0.00142611      -0.00154896
Ti       4.51227904       3.64143733      38.81429351      -0.00070229      -0.00151374       0.00203223
Ti       4.94929787      -0.95878209      38.83435079       0.00167238      -0.00012628       0.00083621
Ti       5.72214483       1.42787668      40.15492628      -0.00225520      -0.00303510      -0.00072698
Ti       2.42276944      -1.02112585      40.17083641      -0.00179603      -0.00511524      -0.00047671
Ti       3.42978798       5.84142622      40.26339198      -0.00051908       0.00065432       0.00356680
Ti       2.96727249       1.75675010      40.27749259       0.00101678       0.00297587       0.00118845
Ti       4.59693416       3.63679480      41.59613335       0.00100866       0.00033108      -0.00279204
Ti       4.89694101      -0.88389076      41.61103374       0.00046899      -0.00036685      -0.00120133
Ti       2.10222398       3.55095253      42.98620968      -0.00026527       0.00181208       0.00022666
Ti       1.64038707      -0.53199797      42.99989439      -0.00153839      -0.00142674       0.00152229
Ti       7.07988877       3.76771246      42.97621866       0.00150673       0.00237335       0.00117611
Ti       3.76514017       1.33178602      42.99396441       0.00054955       0.00176311      -0.00032039
Ti       4.60365506       3.66581923      44.36687664       0.00095491       0.00069641       0.00071192
Ti       4.90965363      -0.86270184      44.38181677      -0.00134244      -0.00025319       0.00100502
Ti       3.44533009       5.89184990      45.69182719       0.00194130       0.00036521       0.00024642
Ti       2.98461763       1.80762010      45.70636608      -0.00039817       0.00020556       0.00066600
