100
Lattice="4.4265 -2.555641 0.0 3.767997 6.526363 -0.031456 0.0 0.0 45.781652" Properties=species:S:1:pos:R:3:forces:R:3 job_name=CSL13-Zr-Zr-58-d-4.19 GB_type=CSL13 element=Zr system=Zr-58-d-4.19 distance=4.19 energy=-775.29754127 stress_kbar_3x3="_JSON [[-31.42614514, -1.53200099, 0.07836755], [-1.53200102, -33.86201948, 1.66759838], [0.07836753, 1.66759837, -12.13969359]]" pbc="T T T"
Ti       2.46599870      -0.91032528       0.04124462      -0.00616148       0.00137478       0.00177525
Ti       5.76012363       1.54000399       0.02612247       0.00316304      -0.00470894       0.00251090
Ti       4.98466979      -0.81931926       1.39464315       0.00153296      -0.00161728      -0.00094263
Ti       4.58094635       3.76493209       1.37892488      -0.00309874       0.00085914       0.00022325
Ti       7.09482829       3.84993345       2.62646568      -0.00083546      -0.00478490       0.00065980
Ti       3.80318076       1.39948732       2.64212478      -0.00425598      -0.00258163       0.00150225
Ti       1.65907703      -0.45214561       2.88548941       0.00075776      -0.00185985       0.00166369
Ti       2.13674401       3.62256543       2.86971473      -0.00272188      -0.00062060       0.00207696
Ti       4.73039562       3.64162484       4.16738356      -0.00126184      -0.00180321       0.00472833
Ti       4.80625322      -0.75283785       4.18340497      -0.00091219      -0.00007869       0.00468299
Ti       3.44038428       5.85889373       5.23954533      -0.00164477      -0.00329196       0.00194493
Ti       2.94539451       1.79378996       5.25568437      -0.00132727      -0.00193953       0.00250023
Ti       2.39997507      -0.96059839       5.75250420      -0.00204617      -0.00105945      -0.00080760
Ti       5.75355266       1.45402770       5.73681336      -0.00001976      -0.00312825      -0.00031594
Ti       4.26928827       3.75819051       6.94402837      -0.00029254      -0.00161576       0.00103969
Ti       5.13821631      -1.09394348       6.95984567       0.00114518      -0.00046956       0.00153618
Ti       6.91929452       3.58672202       7.82671081      -0.00233559      -0.00309964       0.00020240
Ti       3.66434601       1.11431139       7.84189200      -0.00100699      -0.00336848      -0.00024241
Ti       6.36949745       0.88290394       8.59078653      -0.00215843      -0.00218921       0.00073217
Ti       1.59839649      -0.71372701       8.60654639      -0.00094973      -0.00250597       0.00142503
Ti       4.79060423       3.17242119       9.66001840       0.00055349      -0.00077471       0.00250798
Ti       4.37147900      -0.93634413       9.67551385      -0.00050565       0.00060622       0.00220672
Ti       3.17192877       5.40420793      10.44520960      -0.00078641      -0.00407774       0.00195582
Ti       2.68583480       1.33400100      10.46080719      -0.00131302      -0.00343703       0.00184437
Ti       5.89375740       5.19332676      11.40649175      -0.00048324      -0.00095148       0.00227700
Ti       5.57053658       1.02904370      11.42310361       0.00205518      -0.00149804       0.00341404
Ti       0.58894518       0.90491877      12.33683545       0.00160785       0.00032092       0.00158587
Ti       3.85206418       3.37510689      12.32157746      -0.00070074       0.00018194       0.00102291
Ti       3.30055924       0.64886422      13.14247301      -0.00121758      -0.00091220       0.00024267
Ti       6.70070624       3.03613508      13.12678689      -0.00036611      -0.00142123      -0.00058871
Ti       5.09131416       5.35652167      14.24425602       0.00046039       0.00025020       0.00150485
Ti       6.11772336       0.41442113      14.25965041       0.00114671       0.00002316       0.00115535
Ti       4.54194218       2.63119329      14.92340021       0.00144706      -0.00058675       0.00107693
Ti       4.03357054      -1.42375478      14.93970016       0.00144172      -0.00081343       0.00001945
Ti       7.15947902       2.51242794      15.86617391      -0.00064399      -0.00082854      -0.00457605
Ti       2.62143588       0.78199035      15.88244794       0.00305403      -0.00128334      -0.00059177
Ti       5.75233461       4.79385775      17.11707292       0.00204750      -0.00023470      -0.00272455
Ti       5.30922777       0.70225954      17.13458369       0.00010644       0.00260477      -0.00194960
Ti       3.62324764       2.94358783      17.51358783       0.00292730      -0.00352099      -0.00629873
Ti       0.34199366       0.48486141      17.52773416       0.00023555       0.00220347      -0.00686505
Ti       2.88426864       0.51839961      18.67270589       0.00422030       0.00333887      -0.01012910
Ti       6.81187810       2.60292541      18.65713123      -0.00195661      -0.00305013      -0.00665498
Ti       4.93973826       5.20790678      19.98556381       0.00496492      -0.00457155      -0.00061790
Ti       1.65493452       2.75201151      20.00148675      -0.00335600       0.00394205      -0.00076042
Ti       4.40820817       2.41976684      20.13882365       0.00476503       0.00103159      -0.00407502
Ti       3.93178910      -1.65853632      20.15854666       0.00271270       0.00667782       0.00289019
Ti       6.90097042       2.51991492      21.44037340      -0.00030918       0.00095413       0.00392636
Ti       2.77552014       0.54641238      21.45698393       0.00390275      -0.00385363       0.00962778
Ti       3.60269886       2.87224611      22.80307307       0.00471549      -0.00066870       0.00050128
Ti       0.31081205       0.41666105      22.82583745      -0.00031225       0.00514788       0.00409315
Ti       5.74913466       4.72068997      22.83605832       0.00560510       0.00468751       0.00219887
Ti       5.26802098       0.65353921      22.85957557      -0.00403161      -0.00176160       0.00079174
Ti       2.75639039       0.54411487      24.21865941      -0.00004825      -0.00731374      -0.00351691
Ti       6.93278568       2.50349637      24.22344750       0.00009811       0.00969950       0.00789271
Ti       3.97559117      -1.71014763      25.48363988      -0.00578384       0.00931776       0.00316753
Ti       4.42545153       2.43613213      25.43526363       0.01518687      -0.00409941       0.00708847
Ti       1.66408663       2.78863880      25.71805278      -0.01188110       0.01130917       0.00832739
Ti       4.94681773       5.15198810      25.69217650       0.00826073       0.00068704       0.00692585
Zr       2.98184208       0.49089433      27.12759165      -0.00388410       0.00788080       0.00459488
Ti       6.74621302       2.64995600      27.05206734      -0.00750395       0.00306654      -0.00145999
Ti       0.30609945       0.46535874      28.18200344      -0.00320755       0.00482418      -0.01000797
Ti       3.71644434       3.07528511      28.11945609       0.00392498      -0.00081389      -0.00428056
Ti       5.46226746       0.68430818      28.74078929      -0.00887952       0.01155713      -0.00413552
Ti       5.73759509       4.79921930      28.73629595       0.00667982      -0.00321860      -0.00430106
Ti       7.25697625       2.55880122      29.89345089      -0.00367620      -0.00318278      -0.00108686
Ti       2.49078990       0.90829928      29.95727955       0.00917437       0.00205988       0.00691534
Ti       4.56480449       2.70149789      30.73243362       0.00339879      -0.00053885      -0.00040504
Ti       4.09772092      -1.24934682      30.73061846       0.00182251       0.00881787       0.00486444
Ti       6.14215921       0.53991991      31.60485922      -0.00074917       0.00534314      -0.00085307
Ti       5.14451580       5.40803982      31.56328077       0.00275071      -0.00020494       0.00083068
Ti       3.36967807       0.73376488      32.61787060       0.00362117       0.00019485      -0.00704041
Ti       6.67555071       3.19423822      32.59089051      -0.00092109       0.00148223      -0.00662380
Ti       3.94237186       3.48941698      33.37953962       0.00216388       0.00213305      -0.00346750
Ti       0.60757825       1.02785493      33.37798662      -0.00020329       0.00300878      -0.00316144
Ti       2.16627270      -1.21038279      34.43188768       0.00164527       0.00157415       0.00063255
Ti       5.59894793       1.13044696      34.41579357       0.00041280       0.00275611       0.00434652
Ti       3.22782397       5.52019597      35.23017422       0.00088786      -0.00067113      -0.00254763
Ti       2.71640480       1.47915152      35.24225723       0.00300189       0.00372740      -0.00004783
Ti       4.76639908       3.31439945      36.07612034      -0.00169376       0.00052262      -0.00028206
Ti       4.47746223      -0.87300986      36.09115229       0.00324160       0.00255626       0.00117681
Ti       6.41315640       0.95086492      37.25246439      -0.00001272      -0.00102289      -0.00307394
Ti       1.59452879      -0.62435547      37.27545079      -0.00137281       0.00239572       0.00061010
Ti       6.96631512       3.69449087      37.82059116       0.00262009      -0.00136705      -0.00201732
Ti       3.69613962       1.22233028      37.82862032       0.00102790       0.00114306      -0.00161696
Ti       4.38006178       3.75399829      38.83531776      -0.00050399      -0.00030424       0.00033510
Ti       5.05078404      -0.97966851      38.85146686      -0.00145012      -0.00000361      -0.00254463
Ti       5.72516781       1.49007437      40.12174859       0.00188993      -0.00409044      -0.00108940
Ti       2.42250869      -0.95147984      40.13884396      -0.00490156      -0.00281840      -0.00067440
Ti       3.43927854       5.89982652      40.41502734      -0.00165403      -0.00297434      -0.00406439
Ti       2.95847927       1.82673409      40.43133824      -0.00351058      -0.00225593      -0.00489309
Ti       4.65498584       3.68664044      41.62535970      -0.00168563       0.00226964      -0.00468783
Ti       4.86478277      -0.78752969      41.64279316       0.00170846      -0.00335280      -0.00510971
Ti       2.12812142       3.62004792      42.96879215      -0.00283006       0.00033483      -0.00027363
Ti       1.64921596      -0.45590995      42.98561755       0.00071760      -0.00377641      -0.00052316
Ti       7.09049012       3.84722332      43.06607867      -0.00005130      -0.00667468      -0.00217096
Ti       3.79145312       1.40121686      43.07971678      -0.00719702      -0.00216849      -0.00241930
Ti       4.60576712       3.74364197      44.39620745      -0.00047390       0.00103210       0.00184269
Ti       4.94898228      -0.80464001      44.41171357      -0.00123530      -0.00000131       0.00314876
Ti       3.47203512       5.95328539      45.74427146      -0.00307737      -0.00419878      -0.00066799
Ti       3.00560870       1.87062209      45.76064749      -0.00340434      -0.00387690       0.00043762
