100
Lattice="4.4265 -2.555641 0.0 3.767997 6.526363 -0.031456 0.0 0.0 45.781652" Properties=species:S:1:pos:R:3:forces:R:3 job_name=CSL13-Zn-Zn-57-d-2.88 GB_type=CSL13 element=Zn system=Zn-57-d-2.88 distance=2.88 energy=-768.16573777 stress_kbar_3x3="_JSON [[-36.57680942, -3.32949098, 2.58238602], [-3.32949094, -38.23771069, 1.00756163], [2.58238605, 1.00756162, -19.16135619]]" pbc="T T T"
Ti       2.43715250      -0.98437640       0.09691366      -0.00026026      -0.00336714       0.00317113
Ti       5.73208395       1.46339396       0.07967522      -0.00223311      -0.00121157       0.00400367
Ti       4.98612415      -0.91525231       1.41181072      -0.00060431      -0.00273172       0.00351829
Ti       4.50952438       3.70910039       1.39441976      -0.00190430      -0.00152250       0.00330428
Ti       7.04556082       3.76486680       2.57543622      -0.00160542      -0.00156722      -0.00046580
Ti       3.75971626       1.31454520       2.59210179      -0.00199202      -0.00212044      -0.00021788
Ti       1.62816178      -0.54148344       2.94663870      -0.00209551      -0.00441335       0.00098346
Ti       2.08211065       3.55057588       2.93618507      -0.00312023      -0.00204914       0.00099828
Ti       4.73315609       3.51958470       4.20125618       0.00004620      -0.00220813      -0.00165303
Ti       4.69126255      -0.80696337       4.21237524      -0.00428135      -0.00093891      -0.00120999
Ti       3.36528222       5.74180476       5.18946919      -0.00246202      -0.00562142      -0.00384584
Ti       2.86245389       1.66953985       5.20357201      -0.00423795      -0.00562525      -0.00373475
Ti       2.31178848      -1.05393876       5.82950726      -0.00376763      -0.00394305      -0.00005890
Ti       5.70477454       1.33783764       5.81289662      -0.00215466      -0.00473165      -0.00038679
Ti       4.12168033       3.66877952       6.96406989      -0.00358291      -0.00145588      -0.00072383
Ti       5.09876412      -1.24556781       6.98060862      -0.00154960      -0.00371232      -0.00064718
Ti       6.81297942       3.42958762       7.79335677      -0.00528546      -0.00574464      -0.00237604
Ti       3.55502810       0.97643653       7.81531427      -0.00396714      -0.00705213      -0.00398160
Ti       6.25656690       0.75790476       8.67583860      -0.00460182      -0.00434228       0.00188750
Ti       1.50834813      -0.84754946       8.68324836      -0.00227666      -0.00523313       0.00202734
Ti       4.70536105       3.02654271       9.66519011      -0.00098582      -0.00478903      -0.00080985
Ti       4.22556541      -1.05867739       9.68112533      -0.00372124      -0.00505530      -0.00061055
Ti       7.45867515       2.72535927      10.45478988      -0.00534364      -0.00454555      -0.00256760
Ti       2.59244326       1.17728380      10.47197533      -0.00486516      -0.00653282      -0.00236013
Ti       5.77851707       5.06161380      11.51673185      -0.00550784      -0.00480672       0.00038137
Ti       5.43939302       0.90917596      11.52664521      -0.00372829      -0.00388367       0.00265433
Ti       0.46031475       0.76992264      12.31802812      -0.00165075      -0.00520491      -0.00823166
Ti       3.71074916       3.22738779      12.29385842      -0.00393179      -0.00724330      -0.00418200
Ti       3.11147286       0.57596168      13.19345997      -0.00501366       0.00054903      -0.00192796
Ti       6.64924539       2.88007785      13.17655248       0.00148217      -0.00916137      -0.00359353
Ti       4.95018465       5.29319627      14.39351813      -0.00200059      -0.00313023       0.00175975
Ti       6.02157015       0.32328401      14.41656858       0.00186410       0.00104747       0.00594631
Ti       4.40298759       2.53364909      14.88515318      -0.00157335      -0.00346686      -0.00778463
Ti       3.90116831      -1.53951259      14.90360198      -0.00128334       0.00079068      -0.00711688
Ti       6.95342392       2.52313927      15.96782689      -0.00740164      -0.00013635       0.00791166
Ti       2.61440979       0.67470840      15.97345412       0.00393461       0.00292557      -0.00357960
Ti       5.68477102       4.76246193      17.30378233       0.00352254      -0.00575926       0.00366916
Ti       5.17727141       0.70424134      17.32451270       0.01255203       0.00376137       0.00184609
Ti       3.50472897       2.91364267      17.49024033      -0.00755830       0.00644601      -0.00191811
Ti       4.65767372      -2.10830316      17.49974062      -0.00902761       0.00594218      -0.00221075
Ti       2.69900130       0.55052312      18.78462196      -0.00015708       0.00402991       0.00277062
Ti       6.77181180       2.54689694      18.78355333       0.00577065       0.00196593      -0.00367563
Ti       4.80194538       5.21621112      20.22262186      -0.00362412       0.00129410       0.00109982
Ti       5.98261709       0.19251380      20.20921891       0.00616717       0.00336070       0.00161274
Ti       4.32206022       2.40034173      20.11525751      -0.00348593      -0.00109892      -0.00333096
Ti       3.79242857      -1.66751436      20.10653251       0.00964002      -0.00155141      -0.00467787
Ti       6.67313690       2.58001403      21.65334785       0.00328036      -0.00235543      -0.00247305
Ti       2.74967975       0.45934405      21.59442453       0.00791981       0.00144343       0.00010439
Ti       3.45575082       2.83377997      22.68726356       0.00136877       0.00528764       0.00139138
Ti       4.66176085      -2.02586553      22.65951607       0.00469376       0.00446333       0.00042173
Ti       5.52039283       4.79473972      23.09074914       0.00150584       0.00085728       0.00191796
Ti       5.16159077       0.66209163      23.12777864       0.00490518      -0.00044503      -0.00027140
Ti       2.53102382       0.74860044      24.41661218      -0.00041101       0.00842729      -0.00742224
Ti       2.90634966       4.78218211      24.41988324       0.00037285       0.00613209      -0.00610760
Ti       4.01042751      -1.65981443      25.25847163       0.00562267       0.00801115      -0.00224084
Ti       4.71089556       2.67751112      25.15275464      -0.00197014      -0.00001393      -0.00225618
Ti       5.98598866       0.34105747      25.96228059       0.00468584       0.00274394       0.00172212
Zn       5.12609459       5.26027403      26.05903527       0.00644549       0.01171310       0.00602099
Ti       3.40099134       0.41664897      27.07544020      -0.00051137       0.00835693       0.00028863
Ti       6.81381812       2.96176280      27.07319447       0.00361616       0.00603630       0.00152154
Ti       0.69215001       0.88964466      27.81907400       0.00384661       0.00155751       0.00254264
Ti       3.84221589       3.19976594      27.77846916       0.00210597       0.00425394       0.00224930
Ti       5.59129350       0.96608436      28.82722924       0.00077633       0.00172971       0.00180586
Ti       5.84633131       5.06750372      28.81838776       0.00399962       0.00664103       0.00189315
Ti       3.20923532       5.27462139      29.70910069       0.00481758       0.00537723      -0.00028116
Ti       2.72298515       1.21725086      29.67408277       0.00126230       0.00237258      -0.00090640
Ti       4.73533339       3.09610541      30.51855939      -0.00054953       0.00616170       0.00119690
Ti       4.41834121      -1.08846637      30.50127248       0.00304050       0.00264440       0.00032340
Ti       1.92913502       3.27627303      31.66858649       0.00262390       0.00318662       0.00369099
Ti       1.57822465      -0.83080250      31.66297956       0.00198325       0.00621436       0.00164266
Ti       3.66364956       1.00228454      32.30521493       0.00354969       0.00211960      -0.00010309
Ti       6.91723664       3.46547301      32.29276586       0.00449937       0.00274825      -0.00095646
Ti       4.30115690       3.58354007      33.26350734       0.00200376       0.00124944       0.00171458
Ti       5.04206738      -1.20133208      33.28343341      -0.00067692       0.00522830       0.00073937
Ti       2.37103297      -1.12989782      34.54101436       0.00051416       0.00303127      -0.00132207
Ti       5.69137367       1.30790103      34.51666177       0.00280777      -0.00028697      -0.00055454
Ti       3.39607876       5.71433186      34.90709739       0.00216576      -0.00026059      -0.00574066
Ti       2.91179861       1.64458879      34.91226247      -0.00013133       0.00367967      -0.00355185
Ti       4.64685170       3.50420882      36.06633182      -0.00146817       0.00182267       0.00187533
Ti       4.79312892      -0.93025297      36.08124718       0.00303327       0.00237368      -0.00090924
Ti       2.08545260       3.47391391      37.37554402       0.00080530      -0.00238531       0.00148132
Ti       1.61181226      -0.60230836      37.38785232       0.00120279      -0.00012787       0.00331191
Ti       7.05184939       3.70131406      37.56245347       0.00093894      -0.00105106       0.00261138
Ti       3.75077238       1.25484066      37.57841809      -0.00041311       0.00270744       0.00154893
Ti       4.53907036       3.62933949      38.84908349       0.00242461      -0.00228843      -0.00024927
Ti       4.93750392      -0.95203518      38.86629040       0.00135643       0.00118603       0.00022098
Ti       5.72725105       1.42017826      40.20644184      -0.00059958      -0.00291021       0.00210004
Ti       2.42339204      -1.02427643      40.22282343      -0.00160577      -0.00126918       0.00339161
Ti       3.42949912       5.83895907      40.26820032       0.00074236      -0.00042485       0.00254146
Ti       2.97374861       1.75212452      40.28141831       0.00115278      -0.00119461       0.00070416
Ti       4.58853665       3.63731409      41.62121706      -0.00155419       0.00060639       0.00244439
Ti       4.90811711      -0.89625326      41.63704598       0.00073970      -0.00104065       0.00223532
Ti       2.10138609       3.54494394      43.03216947      -0.00072171      -0.00231804       0.00232891
Ti       1.63845580      -0.53882717      43.04643142      -0.00179063      -0.00277949       0.00240804
Ti       7.07888646       3.76269667      42.98137205      -0.00042696      -0.00020110       0.00034792
Ti       3.76493508       1.32550540      42.99826535      -0.00104005      -0.00100845       0.00027270
Ti       4.61196819       3.64962554      44.39186395      -0.00017158      -0.00128302       0.00039349
Ti       4.89534718      -0.86494566      44.40777387      -0.00249538      -0.00143355       0.00132393
Ti       3.44323822       5.87713982      45.69091982      -0.00211595       0.00003804       0.00030560
Ti       2.97607307       1.79441999      45.70515102      -0.00029308      -0.00147995       0.00064454
