100
Lattice="4.4265 -2.555641 0.0 3.767997 6.526363 -0.031456 0.0 0.0 45.781652" Properties=species:S:1:pos:R:3:forces:R:3 job_name=CSL13-Zr-Zr-64-d-6.97 GB_type=CSL13 element=Zr system=Zr-64-d-6.97 distance=6.97 energy=-775.32726961 stress_kbar_3x3="_JSON [[-30.798424, -1.7141853, -0.29231643], [-1.71418527, -33.40374277, 1.42743366], [-0.2923164, 1.42743363, -11.46035394]]" pbc="T T T"
Ti       2.47323873      -0.89870322       0.05062608      -0.00703305      -0.00552066      -0.00232661
Ti       5.76866430       1.55114053       0.03582483      -0.00524241      -0.00391383      -0.00233512
Ti       4.98969504      -0.80773116       1.40724887      -0.00211787      -0.00337003      -0.00260639
Ti       4.58974667       3.77385423       1.39139874      -0.00499886      -0.00269137      -0.00441918
Ti       7.10146718       3.85977242       2.64305623      -0.00550092      -0.00565988      -0.00601150
Ti       3.80919927       1.40945562       2.65878639      -0.00482826      -0.00473141      -0.00827564
Ti       1.66471023      -0.44253499       2.89414563      -0.00181875      -0.00373318       0.00048706
Ti       2.14311257       3.63221710       2.87888074      -0.00287740      -0.00242598      -0.00095695
Ti       4.73282814       3.65289381       4.17663203       0.00104536      -0.00505512      -0.00082769
Ti       4.81468084      -0.74533307       4.19261540      -0.00616526      -0.00342527      -0.00010221
Ti       3.44652518       5.86940113       5.25307968      -0.00363400      -0.00552261      -0.00496688
Ti       2.95124032       1.80459633       5.26899358      -0.00358910      -0.00626853      -0.00508775
Ti       2.40723114      -0.95182878       5.75758547      -0.00542548      -0.00592301       0.00287999
Ti       5.75795810       1.46442421       5.74204461      -0.00285558      -0.00580980       0.00332946
Ti       4.27694213       3.76551663       6.95179687      -0.00600874      -0.00329585       0.00142874
Ti       5.14092688      -1.08406089       6.96758019      -0.00125077      -0.00831996       0.00137777
Ti       6.92299501       3.59518742       7.83733470      -0.00336535      -0.00626816       0.00066478
Ti       3.67015463       1.12214867       7.85284211      -0.00394882      -0.00609373       0.00098338
Ti       6.37499978       0.88779007       8.59482223      -0.00456336      -0.00375269       0.00814775
Ti       1.59956124      -0.70600921       8.61084888      -0.00145685      -0.00660120       0.00794823
Ti       4.79229484       3.17672276       9.66625838      -0.00134874      -0.00223102       0.00814305
Ti       4.37321722      -0.93220675       9.68180505      -0.00169019      -0.00322298       0.00816344
Ti       3.17533635       5.40457577      10.45274233      -0.00227438      -0.00097929       0.00408618
Ti       2.68482892       1.33690586      10.46812464      -0.00040834      -0.00254431       0.00404134
Ti       5.89361117       5.19264377      11.40892755      -0.00200856       0.00311559       0.00646620
Ti       5.56846844       1.02948870      11.42466653       0.00292094       0.00090873       0.00661268
Ti       0.58805079       0.90552059      12.34222451       0.00260565       0.00099849       0.00439270
Ti       3.84937025       3.37300740      12.32696326       0.00025205       0.00519680       0.00372577
Ti       3.30004085       0.64445541      13.14616460       0.00009207       0.00394748       0.00102050
Ti       6.69397304       3.03534721      13.13077438       0.00379239       0.00285546       0.00046425
Ti       5.08588282       5.35304766      14.24382256       0.00537140       0.00602600       0.00502617
Ti       6.11017317       0.41021578      14.26000726       0.00356892       0.00624482       0.00441983
Ti       4.53731399       2.63075483      14.92876619       0.00455265       0.00219711       0.00252802
Ti       4.02680141      -1.42640455      14.94337345       0.00213953       0.00384756       0.00650352
Ti       7.15595900       2.50678752      15.86661387       0.00450094       0.00747766       0.00581687
Ti       2.61205719       0.77977845      15.88230510       0.00210122       0.00104622       0.00497804
Ti       5.74276041       4.79474540      17.11525110       0.00699905       0.00459034       0.00659408
Ti       5.30026292       0.69982223      17.13009137       0.00454083       0.00652941       0.00668513
Ti       3.61355869       2.94313202      17.51687591       0.00486171       0.00208655       0.00673998
Ti       0.33464949       0.48614894      17.53189261       0.00459841      -0.00225283       0.00308063
Ti       2.87776581       0.51915462      18.67484858       0.00462826      -0.00065901      -0.00262482
Ti       6.79920028       2.60541549      18.65806319       0.00801060       0.00494692      -0.00082068
Ti       4.93222280       5.21346814      19.98160501       0.00341953      -0.00620871       0.00277156
Ti       1.64469372       2.75531890      19.99498871       0.00592760      -0.00187099       0.00584508
Ti       4.39863840       2.42404262      20.14530532       0.00687523       0.01022826       0.00368385
Ti       3.92451257      -1.65504914      20.15944011       0.01029096       0.00409623       0.00257311
Ti       6.89687406       2.52108433      21.43901212       0.00615031       0.00071378       0.00561179
Ti       2.77024612       0.55694601      21.45462404       0.00489997       0.00380723       0.01205431
Ti       3.60257029       2.87380957      22.82236684       0.00051045      -0.00249669      -0.00389572
Ti       0.30570398       0.42908704      22.82390254       0.00736977       0.00361111       0.00264316
Ti       5.74679214       4.73468209      22.83400382       0.00582169       0.01027056      -0.00088674
Ti       5.26754199       0.65661390      22.84758388       0.00488834       0.00551800      -0.00107304
Ti       2.76301146       0.56298020      24.23377004       0.00130870       0.00558698      -0.00716883
Ti       6.92641456       2.51130663      24.20802906       0.00220443       0.00257267      -0.00790243
Ti       3.95141730      -1.64848301      25.48015731       0.00748922       0.01150941       0.00104726
Ti       4.42297406       2.41661089      25.48699731      -0.00113888       0.00600881      -0.00547928
Ti       1.67314530       2.75429095      25.69773132      -0.00297943      -0.00210082      -0.00400278
Ti       4.96581730       5.20026045      25.69178428       0.00176498       0.00741469      -0.00392905
Ti       2.96079538       0.50598078      27.04328912       0.00147994       0.00444041       0.00223305
Ti       6.80733222       2.61451798      26.97617101       0.00900297       0.00645073       0.01038678
Ti       0.39383744       0.52834812      28.06484584      -0.00322502      -0.00071946       0.00289335
Ti       3.70866668       2.94311655      28.11453986      -0.01045283       0.01190385       0.00236313
Ti       5.35762934       0.67709590      28.58854777       0.00720698       0.00567012      -0.00150502
Ti       5.79237414       4.85838484      28.55990789       0.00748233       0.00906039       0.00065992
Zr       7.25292323       2.56137674      29.88376123       0.00845928       0.00449968      -0.00848947
Ti       2.54811750       0.89000423      29.84798487       0.00596769       0.00040065      -0.00097154
Ti       4.52331425       2.64090570      30.80367667      -0.00069701       0.00161126      -0.00541991
Ti       4.13742845      -1.23057662      30.69871335       0.00261992       0.01053413      -0.00114124
Ti       6.12361211       0.45615898      31.61057400       0.00364289      -0.00075210      -0.00303759
Ti       5.25430039       5.37198262      31.54308268       0.00332649       0.01083370      -0.00380751
Ti       3.35197537       0.72029390      32.61769915       0.00302444       0.00284424      -0.00283943
Ti       6.65248817       3.14112942      32.67188506       0.00291995       0.00258233       0.00666614
Ti       3.92016171       3.50509844      33.39688276       0.00336954       0.00334154      -0.00356446
Ti       0.57363258       0.96601172      33.36978981       0.00405133       0.00276455       0.00439875
Ti       2.14287024      -1.22104804      34.44859108       0.00481172       0.00372044      -0.00199849
Ti       5.58134470       1.09630813      34.40484043       0.00350604      -0.00316990      -0.00393261
Ti       3.19828379       5.48778801      35.28915463       0.00456488       0.00847401      -0.00968768
Ti       2.69510405       1.46558612      35.25200343      -0.00300104      -0.00397885       0.00098881
Ti       4.77300449       3.28045972      36.08381839      -0.00272214       0.00129395       0.00007459
Ti       4.45777363      -0.88113779      36.09823437       0.00187294      -0.00058909      -0.00760802
Ti       6.39922685       0.94646638      37.23893773      -0.00197249      -0.00541778       0.00365664
Ti       1.58918796      -0.63372556      37.28181213       0.00259139      -0.00068330      -0.00172327
Ti       6.94993494       3.68945003      37.85919683      -0.00210281       0.00025464      -0.00160580
Ti       3.68531211       1.21248594      37.84817715      -0.00337288      -0.00095233      -0.00035756
Ti       4.35390180       3.77035750      38.83912316       0.00237039      -0.00944510      -0.00581820
Ti       5.05838181      -0.98232502      38.85883417      -0.00162364      -0.00019507      -0.00210683
Ti       5.72853931       1.49743994      40.11924554      -0.00621497      -0.00511036      -0.00039586
Ti       2.42139437      -0.94098284      40.14030205      -0.00454842      -0.00614900      -0.00150549
Ti       3.44493386       5.90665341      40.44354085      -0.01118762      -0.00146172      -0.00086063
Ti       2.95982584       1.83443894      40.45283916      -0.00968682      -0.00573476      -0.00584313
Ti       4.66868896       3.69192732      41.63234285      -0.00321147      -0.00419512      -0.00233632
Ti       4.86588393      -0.77010011      41.65426177      -0.00679316      -0.00714669      -0.00659586
Ti       2.13662125       3.63357463      42.97516204      -0.00976276      -0.00393763      -0.00233945
Ti       1.65654919      -0.44375821      42.99224620      -0.00745643      -0.00503543      -0.00458412
Ti       7.09831509       3.86041854      43.08862541      -0.00874778      -0.00770243      -0.00787948
Ti       3.79871650       1.41512646      43.09722985      -0.00684084      -0.00708879      -0.00370212
Ti       4.61164316       3.75675494      44.40817267      -0.00626241      -0.00592652      -0.00243759
Ti       4.95986953      -0.79222030      44.42466467      -0.00810000      -0.00432652      -0.00612590
Ti       3.47969120       5.96558739      -0.01938665      -0.00676048      -0.00831750      -0.00639542
Ti       3.01450659       1.88183992      -0.00406681      -0.00450189      -0.00304912      -0.00497155
