100
Lattice="4.4265 -2.555641 0.0 3.767997 6.526363 -0.031456 0.0 0.0 45.781652" Properties=species:S:1:pos:R:3:forces:R:3 job_name=CSL13-Cu-Cu-49-d-0.01 GB_type=CSL13 element=Cu system=Cu-49-d-0.01 distance=0.01 energy=-770.42977179 stress_kbar_3x3="_JSON [[-35.21400548, -1.37397569, -0.02373055], [-1.37397571, -38.9422242, 0.93705566], [-0.02373052, 0.93705564, -24.37220249]]" pbc="T T T"
Ti       2.43393900      -0.95308854       0.02160994      -0.00105227       0.00135353       0.00137840
Ti       5.73852951       1.48974937       0.00616599       0.00110733      -0.00025885       0.00086273
Ti       4.94377370      -0.85887538       1.38715893      -0.00080550       0.00130078       0.00078134
Ti       4.56538537       3.71108646       1.37109074      -0.00014424      -0.00000698       0.00013922
Ti       7.07219750       3.80342562       2.67552508       0.00105162      -0.00187432      -0.00192575
Ti       3.77056562       1.36035652       2.69131609      -0.00332525      -0.00101794      -0.00092429
Ti       1.63326064      -0.49806790       2.86070681       0.00078471      -0.00151675      -0.00028072
Ti       2.10504257       3.57920980       2.84556124      -0.00150288       0.00096216      -0.00105862
Ti       4.64957306       3.63968167       4.16198656      -0.00023459       0.00160373      -0.00200028
Ti       4.83641880      -0.82044303       4.17713376      -0.00141693       0.00163179      -0.00117344
Ti       3.42139648       5.86010433       5.36197417      -0.00242176      -0.00016674       0.00051786
Ti       2.94248134       1.78594164       5.37735255      -0.00012020      -0.00338821      -0.00162012
Ti       2.40615939      -0.99114454       5.72197378      -0.00098171      -0.00141739      -0.00318934
Ti       5.70929160       1.45001205       5.70685816       0.00059281      -0.00155031      -0.00157975
Ti       4.36313686       3.71737606       6.97079083       0.00362285       0.00116825      -0.00011526
Ti       5.03441441      -1.02237100       6.98692895       0.00375823      -0.00079679      -0.00063709
Ti       6.95563110       3.65532476       7.99911253       0.00102741      -0.00058895      -0.00057123
Ti       3.68505826       1.19033745       8.01469840      -0.00366853      -0.00056934      -0.00162276
Ti       6.40807185       0.91181902       8.59105029       0.00140429       0.00201763       0.00109476
Ti       1.57989897      -0.65331468       8.60190176       0.00008748      -0.00132381       0.00125746
Ti       4.75050568       3.29002739       9.75150735      -0.00079456       0.00265633       0.00335536
Ti       4.47990771      -0.90602177       9.77313249      -0.00348191       0.00137495       0.00322443
Ti       3.22848347       5.50187303      10.62110708       0.00137358      -0.00154333      -0.00219356
Ti       2.72386837       1.45314717      10.63813829       0.00202590       0.00074363       0.00342253
Ti       2.17093202      -1.24116003      11.45712272      -0.00043981      -0.00011430      -0.00113982
Ti       5.59735664       1.12383370      11.44787687       0.00114139       0.00172072      -0.00150206
Ti       0.60355730       1.03161209      12.51324005      -0.00059474       0.00077441      -0.00103989
Ti       3.94805445       3.46014748      12.47453008      -0.00189857       0.00094945      -0.00023852
Ti       3.39483692       0.71443506      13.29711186      -0.00036409       0.00229674      -0.00094919
Ti       6.70567874       3.17770379      13.27686176       0.00152156      -0.00212021      -0.00414398
Ti       5.16129855       5.42320895      14.27000539      -0.00083354       0.00145850      -0.00393422
Ti       6.14213100       0.50468601      14.27104919       0.00144395      -0.00195440      -0.00381170
Ti       4.58403859       2.73791158      15.14291742       0.00129252       0.00191897      -0.00166674
Ti       4.10714242      -1.29458046      15.21033591      -0.00031503      -0.00012318       0.00083289
Ti       7.29983076       2.52061604      15.98838634       0.00048250      -0.00241556      -0.00156492
Ti       2.51136614       0.91151393      16.01612898      -0.00093069      -0.00149280      -0.00224525
Ti       5.71267652       4.81386769      17.11296568       0.00091771      -0.00246439       0.00123528
Ti       5.34986751       0.69753203      17.08632218       0.00066933       0.00083114       0.00105070
Ti       3.65743603       2.98655800      17.75336502       0.00711447       0.00473591       0.00593579
Ti       0.37890737       0.49845672      17.86385109       0.00119208       0.00927210       0.00072129
Ti       3.01217894       0.34839114      18.75599079       0.00084403       0.00531663       0.01139125
Ti       6.67658386       2.65735834      18.75960969      -0.00328722      -0.00878032       0.00571397
Ti       4.93154839       5.03513503      20.04429835       0.00217280       0.00014139       0.00183044
Ti       1.61505048       2.63973286      19.92058081       0.00118087      -0.00410998       0.00231063
Ti       4.37198046       2.25221262      20.30881331      -0.00138861      -0.01477899      -0.01202934
Ti       3.89739347      -1.68420522      20.52280057       0.00087124       0.00631848       0.00467332
Ti       6.85770321       2.23500763      21.51039973      -0.01160281       0.00293461      -0.00845693
Ti       2.53292215       0.57266671      21.55026985       0.00642908       0.00044837      -0.00806247
Ti       3.60638268       2.74922263      22.85269148       0.00559128      -0.01012511      -0.00156299
Cu       0.22909343      -0.05725195      22.81784957      -0.00525028      -0.00686305       0.00307637
Ti       5.69809774       4.59749316      22.89924484       0.00564100       0.00169272      -0.00060550
Ti       5.15173585       0.35559943      22.93121628      -0.00779818      -0.00095495      -0.00181107
Ti       2.38805217       0.67228110      24.33999393      -0.00238444      -0.00089033       0.00456404
Ti       6.93870604       2.22818196      24.33853566      -0.00903507       0.00398611       0.01409587
Ti       3.93541121      -1.53199879      25.03019134       0.00206141       0.00577716       0.00041299
Ti       4.39589588       2.27175639      25.34780256       0.00462560       0.00210474       0.00591505
Ti       5.98170942       0.14479248      25.94121407      -0.00112713      -0.00108788       0.00510759
Ti       5.03251571       4.99961992      25.77491762       0.00308474       0.00125849       0.00339608
Ti       3.11795532       0.32712114      27.04211482       0.00398838       0.00260811      -0.00540201
Ti       6.54592162       2.78688395      27.03765875       0.00230681      -0.00751809      -0.00072179
Ti       0.41359348       0.59190421      27.73335419      -0.00167465       0.00433362      -0.00787089
Ti       3.70659410       3.11681626      27.88384709      -0.00379545       0.00581694      -0.00727613
Ti       5.40253321       0.74289240      28.73965297       0.00065960       0.00841480      -0.00752452
Ti       5.67537585       4.93778083      28.72464327       0.00359379      -0.00566156      -0.00073891
Ti       2.96783977       5.13788266      29.73911939      -0.00062632      -0.00362443      -0.00237086
Ti       2.49432319       1.04076291      29.72018139       0.00634664      -0.00091671       0.00262757
Ti       4.60542953       2.87160483      30.51776143       0.00064392       0.00285022       0.00327343
Ti       4.18389198      -1.21666050      30.47739536      -0.00133552       0.00149850       0.00585785
Ti       6.17768738       0.58936808      31.53879629      -0.00134139      -0.00226650       0.00416173
Ti       5.20230915       5.52121281      31.54789778      -0.00095973       0.00153691       0.00507393
Ti       3.48515356       0.81865706      32.39303651       0.00102673       0.00301142      -0.00111013
Ti       6.73033973       3.29335065      32.38755361       0.00189845       0.00267849       0.00113963
Ti       4.04907355       3.51768030      33.23491345      -0.00215042       0.00235984      -0.00235922
Ti       5.01344806      -1.39009237      33.23563111      -0.00109219       0.00035573      -0.00257243
Ti       2.24399251      -1.19001939      34.39799683      -0.00027052       0.00182626       0.00185033
Ti       5.61972863       1.20687933      34.37187369       0.00153892       0.00139976       0.00452894
Ti       3.29612502       5.60848290      34.99590971       0.00085723      -0.00044250       0.00056825
Ti       2.78670519       1.54854383      35.01637939       0.00342537       0.00177820      -0.00530988
Ti       4.69403977       3.40422953      35.99524756      -0.00335651       0.00500299      -0.00226281
Ti       4.61356845      -0.90341686      36.01249134      -0.00279301       0.00018602      -0.00291815
Ti       2.03440452       3.47899585      37.24462105       0.00022613       0.00119115      -0.00095103
Ti       1.57831812      -0.60967208      37.26572124      -0.00189105      -0.00136805       0.00118596
Ti       6.99787167       3.69856193      37.62509128       0.00172215       0.00033076       0.00009604
Ti       3.71486699       1.24490860      37.64196127      -0.00484867      -0.00177314       0.00043583
Ti       4.45537297       3.68341581      38.79943404       0.00735030       0.00076900      -0.00328291
Ti       4.96627442      -0.96502100      38.81547552       0.00197179      -0.00341996      -0.00172145
Ti       5.70765000       1.45361150      40.10935564       0.00012630      -0.00282668       0.00145183
Ti       2.41353872      -0.99516856      40.12709509       0.00055331      -0.00138958       0.00019567
Ti       3.42136664       5.86815262      40.30098856      -0.00418240       0.00100459      -0.00431250
Ti       2.95205296       1.78662298      40.31668352      -0.00189295      -0.00670438      -0.00166798
Ti       4.61072304       3.65692129      41.59347877       0.00011099       0.00184726       0.00078126
Ti       4.87145892      -0.84348491      41.60885735      -0.00002704       0.00040997      -0.00134435
Ti       2.09854496       3.57776395      42.95407905      -0.00207394       0.00026285       0.00249726
Ti       1.63384588      -0.50355637      42.97055092       0.00100922      -0.00047059       0.00080709
Ti       7.07486123       3.79820391      43.01448693       0.00099821      -0.00250726       0.00232963
Ti       3.76291168       1.35959010      43.03121506      -0.00354337      -0.00226524       0.00166239
Ti       4.58363952       3.69675091      44.37423215       0.00090921      -0.00068319       0.00298486
Ti       4.92158944      -0.84930068      44.38987331      -0.00040030       0.00155673       0.00121871
Ti       3.43820203       5.91021124      45.73783932      -0.00207144      -0.00128633       0.00136374
Ti       2.98594150       1.82120205      45.75425272       0.00115022      -0.00236019       0.00098516
