100
Lattice="4.4265 -2.555641 0.0 3.767997 6.526363 -0.031456 0.0 0.0 45.781652" Properties=species:S:1:pos:R:3:forces:R:3 job_name=CSL13-Zn-Zn-65-d-6.97 GB_type=CSL13 element=Zn system=Zn-65-d-6.97 distance=6.97 energy=-768.28872766 stress_kbar_3x3="_JSON [[-35.26523979, -1.31989501, -0.18898726], [-1.3198951, -40.01117616, 2.20583032], [-0.1889872, 2.20583032, -18.60846216]]" pbc="T T T"
Ti       2.47488176      -0.88838409       0.01764015      -0.00282978      -0.00350119      -0.00240674
Ti       5.76791207       1.56133339       0.00206560      -0.00396187      -0.00510100      -0.00191138
Ti       4.99089301      -0.79847667       1.38083729      -0.00291249      -0.00286837      -0.00657203
Ti       4.59052112       3.78244674       1.36621658      -0.00338533      -0.00208430      -0.00603811
Ti       7.10307290       3.86668671       2.62346639      -0.00294476      -0.00296383       0.00064309
Ti       3.81049790       1.41703166       2.63867822      -0.00398992      -0.00163465       0.00017014
Ti       1.66470125      -0.43638466       2.87609899      -0.00239874      -0.00393975       0.00064767
Ti       2.14325175       3.63618654       2.85968180      -0.00249507      -0.00211046       0.00048234
Ti       4.73130027       3.65556829       4.16250796      -0.00289368      -0.00301190       0.00417811
Ti       4.81530420      -0.74283963       4.17848962      -0.00265997      -0.00384191       0.00433802
Ti       3.44499063       5.87174389       5.24834386      -0.00210953      -0.00182018       0.00560533
Ti       2.95213306       1.80586613       5.26447662      -0.00005315      -0.00155593       0.00508904
Ti       2.40705768      -0.95359374       5.75477736      -0.00232203      -0.00411147       0.00066030
Ti       5.75479480       1.46493557       5.73889153      -0.00352875      -0.00224114       0.00033509
Ti       4.27790057       3.76201206       6.95134954       0.00054156      -0.00163099      -0.00115924
Ti       5.13659017      -1.08389760       6.96697103      -0.00282363      -0.00213944      -0.00039040
Ti       6.92457071       3.59383593       7.84823854       0.00076790      -0.00111340      -0.00130948
Ti       3.66729897       1.12305567       7.86357862      -0.00138751      -0.00114461      -0.00097658
Ti       6.37421046       0.88602813       8.60693285      -0.00034899      -0.00068295      -0.00318808
Ti       1.59754291      -0.70723458       8.62299071      -0.00086007      -0.00098056      -0.00292833
Ti       4.78847989       3.17852561       9.68296046       0.00016061       0.00128235      -0.00289856
Ti       4.37719091      -0.93444430       9.69849077       0.00073309      -0.00078676      -0.00152271
Ti       3.17389431       5.40755524      10.47895784       0.00059248       0.00015660      -0.00180564
Ti       2.68832664       1.33803375      10.49501497      -0.00242521      -0.00128187      -0.00222614
Ti       5.89496543       5.19589611      11.43462225       0.00082576       0.00039971      -0.00133770
Ti       5.57078225       1.03141122      11.45094679       0.00138552      -0.00190029      -0.00126825
Ti       0.58735080       0.91030566      12.37552299       0.00106666      -0.00028352       0.00055475
Ti       3.85644355       3.37528184      12.36004036       0.00010522       0.00240072       0.00322527
Ti       3.30347168       0.64917438      13.18441103      -0.00167589      -0.00023915       0.00146439
Ti       6.69716010       3.03994215      13.16897848       0.00195108       0.00164784       0.00149093
Ti       5.09158563       5.35544030      14.27713979       0.00171648       0.00114768      -0.00059344
Ti       6.11404666       0.41450420      14.29285020       0.00384868       0.00051640       0.00269929
Ti       4.54061255       2.63488781      14.97557452       0.00217043       0.00084760      -0.00001419
Ti       4.03487285      -1.42106245      14.99174126       0.00205641      -0.00066148      -0.00250504
Ti       7.16583643       2.50393693      15.91197463       0.00115984      -0.00045689      -0.00347448
Ti       2.60996917       0.78527990      15.92807156       0.00163728       0.00336420       0.00056852
Ti       5.74441285       4.78954057      17.15106560      -0.00136372       0.00112741      -0.00349584
Ti       5.30492406       0.69583883      17.16904492      -0.00252456       0.00150279       0.00155995
Ti       3.61575135       2.93907426      17.57809447       0.00143359      -0.00258547       0.00363138
Ti       0.33633751       0.48042392      17.59396761       0.00549218       0.00660565      -0.00273547
Ti       2.88709688       0.50302490      18.72795668       0.01115093       0.00853925      -0.00070031
Ti       6.78900227       2.59916566      18.71111607       0.00221913      -0.00668784       0.00031067
Ti       4.92973638       5.19509989      20.02648676       0.00268846      -0.00476381       0.00115490
Ti       1.64367063       2.74096226      20.03954194       0.00513029       0.00340765       0.00555026
Ti       4.39644303       2.40726339      20.21832094      -0.00390070      -0.00158258      -0.00098727
Ti       3.92444142      -1.66788923      20.23688150       0.00055688       0.01024943       0.00036097
Ti       6.90025115       2.49607927      21.50351567      -0.00036596      -0.00585809       0.00359334
Ti       2.75413261       0.54478760      21.52221447       0.00839746       0.00840685       0.00629154
Ti       3.59822956       2.85126236      22.90583535       0.00342897      -0.00881741      -0.01115502
Ti       0.29490344       0.40795511      22.92232936       0.00981245       0.00220181      -0.00272366
Ti       5.73507462       4.71523450      22.88051043       0.00119401       0.00318137      -0.00294789
Ti       5.26129927       0.63163455      22.88759262       0.00111338       0.00855075      -0.00812867
Ti       2.77282974       0.52897004      24.29944666      -0.00070267       0.00197933      -0.01589305
Ti       6.89372227       2.49514022      24.27542060      -0.00016270       0.00418394       0.00043539
Ti       3.94027130      -1.68123569      25.61227461       0.00278327      -0.00066543       0.00260350
Ti       4.38321765       2.40374682      25.59009574       0.00280147       0.00094733       0.00041662
Ti       1.64548042       2.71844784      25.75862795       0.00265736       0.00016511      -0.00079756
Ti       4.95778995       5.19024206      25.72285340       0.00097014       0.00093947       0.00378352
Ti       2.90834922       0.50657183      27.07639877       0.00757284       0.00247482       0.00948840
Ti       6.79775210       2.55608189      27.04341591      -0.00102457       0.00653388      -0.00352884
Ti       0.37426084       0.35681666      28.19357655       0.00120488       0.00503015      -0.00010261
Ti       3.69289795       3.00024826      28.22175979       0.00492607       0.00294961       0.00616559
Ti       5.34294934       0.60942508      28.67115655      -0.00517706      -0.00238053       0.00286171
Ti       5.86672183       4.79985415      28.56490981       0.00232775       0.00412615       0.00184788
Ti       7.15421688       2.57395327      29.82788058       0.00316694      -0.00151221       0.00021368
Zn       2.55047068       0.87034063      29.79945622       0.00525502       0.00425675      -0.00363257
Ti       4.57218488       2.59237201      30.77208793      -0.00178306       0.00398341       0.00014967
Ti       4.17178077      -1.29053228      30.71723240       0.00148232       0.00498829      -0.00170780
Ti       1.84779037       3.05614706      31.50902843       0.00407254       0.00151062       0.00108134
Ti       5.06808527       5.40688708      31.42639380       0.00044610      -0.00073815      -0.00303745
Ti       3.28156806       0.72696873      32.50716636       0.00564030       0.00582765      -0.00171165
Ti       6.69988576       3.22118046      32.53155878      -0.00256003      -0.00209628      -0.00679293
Ti       3.94795444       3.45992543      33.32835992       0.00123149      -0.00453090      -0.00528926
Ti       0.59152671       0.99129656      33.38877509       0.00439269       0.00615553       0.00114929
Ti       2.15579761      -1.19478283      34.34666712       0.00184703       0.00410068       0.00151992
Ti       5.56189963       1.13291863      34.28877790      -0.00406305      -0.00285101      -0.00360746
Ti       3.18125394       5.48823274      35.19721634       0.00193587       0.00468489       0.00260923
Ti       2.74253491       1.50160520      35.17426459      -0.00101225      -0.00256616       0.00234214
Ti       4.80770424       3.29717039      36.02493533      -0.00536943      -0.00234369       0.00251547
Ti       4.46880885      -0.86221553      36.05693371      -0.00205403       0.00323950       0.00332925
Ti       6.40255136       0.99017806      37.16203490      -0.00398206      -0.00356220       0.00539963
Ti       1.58865543      -0.60188864      37.19087443       0.00406756       0.00261884       0.00269974
Ti       6.97704164       3.72020680      37.79232455       0.00125691       0.00179757       0.00091220
Ti       3.67682141       1.22339344      37.79941863      -0.00110672      -0.00532309       0.00206291
Ti       4.36511811       3.78894557      38.77680950      -0.00284591      -0.00495797       0.00100812
Ti       5.08478297      -0.96410122      38.80085451      -0.00330452       0.00530846       0.00638965
Ti       5.73687509       1.51560672      40.05606433      -0.00692324      -0.00638451      -0.00209393
Ti       2.42409151      -0.91327358      40.08152157       0.00198477       0.00325073       0.00163120
Ti       3.44680204       5.92685587      40.39120440      -0.00404958       0.00554332       0.00062066
Ti       2.96942827       1.85853849      40.41099624      -0.00650007      -0.00591542      -0.00533753
Ti       4.67563810       3.71046358      41.58135001       0.00163436      -0.00527090       0.00527027
Ti       4.86667727      -0.75140881      41.60190333      -0.00226338      -0.00170391      -0.00215688
Ti       2.13788420       3.64724264      42.92842270      -0.00606515      -0.00408608       0.00260144
Ti       1.65878923      -0.42734952      42.94460168      -0.00398433       0.00225379       0.00119723
Ti       7.10185222       3.87748865      43.04498431       0.00005470      -0.00161300       0.00315668
Ti       3.80181848       1.42995031      43.05608428      -0.00317976      -0.00364769       0.00370474
Ti       4.61226320       3.76995178      44.37011455      -0.00395955      -0.00254555       0.00506015
Ti       4.96181726      -0.77790439      44.38503525      -0.00373713      -0.00244265      -0.00012115
Ti       3.48175521       5.97780416      45.72945713      -0.00322186      -0.00152320      -0.00102788
Ti       3.01513391       1.89453869      45.74583282      -0.00185573      -0.00134216      -0.00459336
