100
Lattice="4.4265 -2.555641 0.0 3.767997 6.526363 -0.031456 0.0 0.0 45.781652" Properties=species:S:1:pos:R:3 job_name=CSL13-Zn-Zn-62-d-5.77 GB_type=CSL13 element=Zn system=Zn-62-d-5.77 distance=5.77 energy=-768.21481591 pbc="T T T"
Ti       2.44875405      -0.96409702       0.06117633
Ti       5.74635076       1.48369807       0.04171049
Ti       4.98306618      -0.87648669       1.39251782
Ti       4.54720359       3.72212139       1.37565376
Ti       7.06819859       3.79855387       2.59732173
Ti       3.78240185       1.34905679       2.61379428
Ti       1.64011182      -0.50831340       2.90478877
Ti       2.10789700       3.57395811       2.89197418
Ti       4.72245486       3.58054686       4.18145951
Ti       4.76044971      -0.79137638       4.19396620
Ti       3.40671054       5.80202239       5.22185476
Ti       2.90942329       1.73320298       5.24037546
Ti       2.36267215      -1.00839053       5.78483704
Ti       5.72953495       1.39609433       5.76755350
Ti       4.20744312       3.71545451       6.95523105
Ti       5.11518685      -1.15913628       6.97250312
Ti       6.87354596       3.51518764       7.81974863
Ti       3.61498746       1.05717135       7.84200815
Ti       6.31992500       0.82712210       8.63449067
Ti       1.56039681      -0.77060377       8.64456992
Ti       4.75023362       3.11276608       9.67297508
Ti       4.30368271      -0.98625741       9.69195844
Ti       3.11061309       5.35691095      10.46555336
Ti       2.64150626       1.26629275      10.48164772
Ti       5.83613031       5.14157839      11.47236809
Ti       5.50851826       0.98056344      11.48162843
Ti       0.52891817       0.85789840      12.35146772
Ti       3.78354858       3.31147452      12.32930840
Ti       3.21457957       0.61710928      13.18665790
Ti       6.66706235       2.97469972      13.17224251
Ti       5.01350448       5.33608632      14.33181899
Ti       6.05940210       0.38155610      14.34809147
Ti       4.46545167       2.59747676      14.93899461
Ti       3.95702594      -1.47265320      14.94896180
Ti       7.04940212       2.52318090      15.94031084
Ti       2.60139810       0.73699971      15.95203128
Ti       5.69748467       4.78898565      17.23354600
Ti       5.22612500       0.70994420      17.24648578
Ti       3.54722140       2.93002622      17.53070734
Ti       4.69050096      -2.07719163      17.54444094
Ti       2.77404074       0.54330878      18.76409847
Ti       6.76442848       2.58089411      18.74177314
Ti       4.85381014       5.22800544      20.12311320
Ti       6.01150470       0.19904524      20.13958721
Ti       4.32611378       2.41587399      20.17240234
Ti       3.84470249      -1.64248605      20.19420954
Ti       6.77079137       2.53646511      21.53967714
Ti       2.71985566       0.53670840      21.56555697
Ti       3.48897624       2.87450919      22.79325839
Ti       4.66313618      -2.12726462      22.82595356
Ti       5.65180830       4.73564893      22.98425579
Ti       5.17096389       0.66259630      23.03433370
Ti       2.57677614       0.62000362      24.40676029
Ti       6.92745350       2.42594239      24.34359282
Ti       3.86318442      -1.66264622      25.43290365
Ti       4.38620443       2.52477041      25.33222486
Ti       5.90520535       0.29853574      25.89136038
Ti       4.88761818       5.20568740      25.92534469
Ti       3.26879020       0.33276591      27.17272605
Ti       6.62899905       2.81429696      27.12322192
Ti       0.63727122       0.75415777      27.92459718
Ti       3.75104261       2.98971960      27.94781270
Zn       5.50700258       0.79343214      28.82363090
Ti       5.74952841       4.96982029      28.74256404
Ti       3.12074651       5.06846115      29.78653114
Ti       2.75087401       1.09295307      29.82340338
Ti       4.82680647       2.95377328      30.54224816
Ti       4.25339430      -1.21784235      30.54313479
Ti       6.24685652       0.64089522      31.60458023
Ti       5.30524921       5.61908106      31.58175332
Ti       3.58840616       0.85108555      32.44284701
Ti       6.87202068       3.34034537      32.37286759
Ti       4.17869505       3.55510125      33.22797354
Ti       5.09288744      -1.31709691      33.28357669
Ti       2.30671617      -1.16622186      34.47046434
Ti       5.71033161       1.26599335      34.43214927
Ti       3.38407708       5.65464950      35.00045113
Ti       2.88032487       1.59683243      35.01965416
Ti       4.71062631       3.45471714      36.03260901
Ti       4.70771618      -0.89451972      36.05196996
Ti       2.08434853       3.47695803      37.30827346
Ti       1.61238447      -0.59002547      37.32239027
Ti       7.04988402       3.71164132      37.60608907
Ti       3.75025973       1.25190651      37.63819942
Ti       4.52123236       3.66162922      38.83352453
Ti       4.97125310      -0.96480967      38.84752978
Ti       5.73380052       1.43111551      40.16108611
Ti       2.44446675      -1.00634675      40.17612139
Ti       3.44443528       5.85660073      40.28745463
Ti       2.97117941       1.76715345      40.30393430
Ti       4.60294047       3.63912959      41.61411260
Ti       4.90806034      -0.86324584      41.62161567
Ti       2.10913214       3.55595385      42.99213207
Ti       1.64931512      -0.52050967      43.00727646
Ti       7.08776321       3.77755722      42.98981051
Ti       3.77944681       1.34382481      43.01064792
Ti       4.60712263       3.67435903      44.38067034
Ti       4.92227251      -0.84507779      44.39408515
Ti       3.45049818       5.89428806      45.70365509
Ti       2.98786853       1.81516325      45.71205202
