100
Lattice="4.4265 -2.555641 0.0 3.767997 6.526363 -0.031456 0.0 0.0 45.781652" Properties=species:S:1:pos:R:3:forces:R:3 job_name=CSL13-Cu-Cu-60-d-5.27 GB_type=CSL13 element=Cu system=Cu-60-d-5.27 distance=5.27 energy=-770.70367622 stress_kbar_3x3="_JSON [[-38.36338512, -2.7414273, 0.96257984], [-2.74142736, -40.85563903, 0.13972198], [0.96257982, 0.13972196, -21.02113711]]" pbc="T T T"
Ti       2.45598277      -0.95303669       0.03270865       0.00211713      -0.00104828      -0.00268789
Ti       5.75456867       1.49232001       0.01590705       0.00158250      -0.00126706      -0.00194825
Ti       4.97788039      -0.86108097       1.37849852      -0.00087114      -0.00580265       0.00077118
Ti       4.56856316       3.72486761       1.36220904      -0.00139806      -0.00376656       0.00392029
Ti       7.08450787       3.81203260       2.61714218       0.00253617      -0.00439073       0.00221680
Ti       3.78995849       1.36284605       2.63358521      -0.00133739      -0.00291525       0.00347451
Ti       1.64834033      -0.49121176       2.87994986      -0.00211638      -0.00483060       0.00210046
Ti       2.12397662       3.58691144       2.86473196      -0.00114528      -0.00542445       0.00335746
Ti       4.71295755       3.61304685       4.16295433      -0.00337716      -0.00443620       0.00060650
Ti       4.80085712      -0.78896475       4.17823774      -0.00072971      -0.00446554      -0.00059695
Ti       3.42814214       5.83495000       5.25378364       0.00011305      -0.00566703       0.00210680
Ti       2.93874364       1.76690638       5.26902629      -0.00248284      -0.00466451       0.00192113
Ti       2.39208706      -0.98826144       5.75569822      -0.00165462      -0.00452279      -0.00107752
Ti       5.74160732       1.42783623       5.73982671      -0.00035928      -0.00556873      -0.00170360
Ti       4.27382297       3.73316336       6.95707140      -0.00289875      -0.00458183       0.00052477
Ti       5.11996418      -1.10669996       6.97281301      -0.00126170      -0.00454330       0.00129947
Ti       6.91922706       3.57181440       7.85927683      -0.00139870      -0.00388558      -0.00012060
Ti       3.65738321       1.10441859       7.87539339      -0.00154561      -0.00193493      -0.00009442
Ti       6.36521084       0.86892592       8.61379282      -0.00113385      -0.00293204      -0.00166641
Ti       1.59346362      -0.72650747       8.62964081      -0.00089482      -0.00352934      -0.00194152
Ti       4.78246823       3.16778280       9.69415411      -0.00119881      -0.00314660      -0.00129085
Ti       4.37426790      -0.94766785       9.70974946      -0.00090841      -0.00346421      -0.00078228
Ti       3.17034448       5.39835792      10.49214442      -0.00110301      -0.00133950      -0.00427439
Ti       2.68636363       1.32672227      10.50757618      -0.00210504      -0.00242417      -0.00456215
Ti       5.89131047       5.18965115      11.45089020      -0.00239687      -0.00154031      -0.00310356
Ti       5.57131632       1.02439390      11.46557533      -0.00222079      -0.00221093      -0.00384045
Ti       0.58641157       0.90741566      12.38774354      -0.00267170      -0.00231986      -0.00048399
Ti       3.85543421       3.36965974      12.37215933      -0.00161506      -0.00164674      -0.00226437
Ti       3.29957130       0.64909249      13.20115147      -0.00087028      -0.00295333      -0.00320506
Ti       6.70201066       3.03580143      13.18520577       0.00107900      -0.00064882      -0.00067505
Ti       5.09143121       5.35994245      14.30168368      -0.00167609      -0.00014138       0.00024001
Ti       6.11541100       0.41797685      14.31790002      -0.00053883      -0.00018571      -0.00046120
Ti       4.54004406       2.63926423      14.99024921      -0.00170046       0.00165331       0.00078842
Ti       4.03520641      -1.42148294      15.00418567      -0.00220076      -0.00158459      -0.00299504
Ti       7.15846112       2.51751839      15.93771133      -0.00103643       0.00279026      -0.00284709
Ti       2.62063540       0.78776528      15.95323324      -0.00121993       0.00051079       0.00396978
Ti       5.74575566       4.80553746      17.18586400      -0.00170760       0.00007253       0.00072262
Ti       5.30342374       0.70797690      17.20134705       0.00046607       0.00211313       0.00262783
Ti       3.61705897       2.94999102      17.59389870       0.00108541      -0.00157926       0.00186185
Ti       0.33535840       0.49444372      17.60965957       0.00239214       0.00369170      -0.00285906
Ti       2.87923359       0.52276035      18.75648094       0.00117124       0.00776225      -0.00079014
Ti       6.79410049       2.61392508      18.73877169      -0.00149572      -0.00096290      -0.00470499
Ti       4.92340114       5.21575670      20.05647704       0.00355946       0.00018475       0.00110769
Ti       1.63486417       2.76735909      20.07517436       0.00107018      -0.00318473       0.00149605
Ti       4.39159132       2.43244905      20.24608808      -0.00556907      -0.00027815       0.00007935
Ti       3.91505006      -1.65066924      20.25836071       0.00569844       0.01257444      -0.00435157
Ti       6.89109059       2.52776351      21.53175394      -0.00217353      -0.00526941       0.01679500
Ti       2.74843806       0.56455518      21.54336134       0.00605246       0.01109586      -0.00611419
Ti       3.57848643       2.88767373      22.91352265      -0.00258507       0.00527750      -0.00307444
Ti       0.28485153       0.42995504      22.94913082      -0.00201026       0.00379981       0.00068202
Ti       5.73199639       4.74111731      22.91779103      -0.00174131      -0.00109730      -0.00101250
Ti       5.23972630       0.67297491      22.94047284       0.00995919       0.00821091      -0.00214322
Ti       2.72444320       0.56370883      24.33596467       0.00190188       0.01167682       0.00906496
Ti       6.88981396       2.53237231      24.33972247       0.00365892      -0.00449904      -0.00573349
Ti       3.84166392      -1.62766140      25.59065437       0.00176147       0.00611556      -0.00161200
Ti       4.37870735       2.42546985      25.54376022      -0.00174120       0.00325491       0.00016584
Ti       6.01597915       0.20083451      25.82988576       0.00814208       0.00220878       0.00327415
Ti       4.88894582       5.24593498      25.72752892      -0.00126128       0.00425665       0.00050481
Ti       2.85493639       0.50859102      27.17049440       0.00005436       0.01205121       0.00211846
Ti       6.72090686       2.68980750      27.15216241      -0.00050873       0.00592966      -0.00369831
Cu       4.71419410      -1.94017549      28.01220479       0.00563530       0.00957214      -0.00095406
Ti       3.62670860       3.01434428      28.07970529      -0.00318808      -0.00880275      -0.00919134
Ti       5.36387935       0.66982169      28.66172575       0.00633304       0.00469309       0.00098457
Ti       5.55021336       4.95642831      28.63164882       0.00365479       0.00795979      -0.00610503
Ti       2.99424342       5.10510585      29.84267004       0.00471534       0.00553647       0.01147671
Ti       2.41209597       0.99479309      29.88334621       0.00067868       0.00475911       0.00169269
Ti       4.66893758       2.85119381      30.57827833      -0.00055974       0.00638874       0.00099717
Ti       4.06259353      -1.17134640      30.48403214       0.00049296       0.00504930       0.00087557
Ti       6.15265536       0.53975118      31.48836206       0.00523660      -0.00094368      -0.00222039
Ti       5.28012297       5.48758147      31.59259624      -0.00144573       0.00967802       0.00144549
Ti       3.51926941       0.82656712      32.47247741       0.00086536       0.00298032      -0.00659916
Ti       6.72358296       3.20161527      32.47706374       0.00211653       0.00107132      -0.00701084
Ti       4.01814401       3.53198925      33.25782463       0.00301545       0.00080150      -0.00494113
Ti       5.03224528      -1.42585696      33.21960239       0.00096949       0.00189949      -0.00887592
Ti       2.27272295      -1.21934084      34.41784699       0.00115053       0.00300449       0.00259394
Ti       5.68611963       1.17406120      34.37989665       0.00148340       0.00354036       0.00493356
Ti       3.34135888       5.59542085      35.04935418      -0.00134176       0.00294235      -0.00035383
Ti       2.78245604       1.50234518      35.08563661       0.00609284       0.00251024      -0.00073192
Ti       4.73697857       3.37231917      35.99911135      -0.00210012      -0.00189130       0.00347716
Ti       4.61203904      -0.89131924      36.01151395       0.00473694       0.00159435       0.00392305
Ti       2.06182524       3.46338598      37.23964362       0.00133800      -0.00466211      -0.00134706
Ti       1.62140565      -0.63103697      37.27397927       0.00387285      -0.00365682      -0.00117695
Ti       7.02005130       3.67977882      37.65556678      -0.00692888      -0.00129348      -0.00694899
Ti       3.74979155       1.23060216      37.68079240       0.00156768       0.00397455      -0.00356903
Ti       4.47784704       3.67670236      38.80184883      -0.00183062      -0.00935844      -0.00153189
Ti       5.00838763      -0.98540172      38.81229941      -0.00055772       0.00634569       0.00219800
Ti       5.73603064       1.44066471      40.11191013      -0.00393272       0.00259899       0.00523927
Ti       2.44486096      -1.01303474      40.12820684       0.00177949       0.00052313       0.00868522
Ti       3.45196399       5.85432011      40.30654815      -0.00365329      -0.00626891       0.00750974
Ti       2.97900230       1.77179576      40.32283327       0.00178978      -0.00515316       0.00273267
Ti       4.63400787       3.64431956      41.59357980      -0.00245536      -0.00284242      -0.00072331
Ti       4.89866507      -0.85642808      41.60729070      -0.00281790      -0.00043664       0.00282066
Ti       2.12199533       3.56788562      42.95826305      -0.00240174       0.00145837       0.00206502
Ti       1.65411764      -0.51215463      42.97376939       0.00304887      -0.00348822       0.00592883
Ti       7.09618332       3.79080516      43.00194776      -0.00041703      -0.00554377       0.00229130
Ti       3.78617348       1.35008057      43.01918925      -0.00529385      -0.00382720       0.00025673
Ti       4.61012180       3.68957128      44.36699843       0.00274536       0.00070070       0.00049192
Ti       4.93547221      -0.85031695      44.38202618      -0.00260642      -0.00549079       0.00563333
Ti       3.46088977       5.90971411      45.71149849       0.00014410      -0.00450991      -0.00395003
Ti       3.00151428       1.82412975      45.72558757      -0.00747202      -0.00598939      -0.00110334
