100
Lattice="4.4265 -2.555641 0.0 3.767997 6.526363 -0.031456 0.0 0.0 45.781652" Properties=species:S:1:pos:R:3:forces:R:3 job_name=CSL13-Zr-Zr-53-d-1.39 GB_type=CSL13 element=Zr system=Zr-53-d-1.39 distance=1.39 energy=-775.23955859 stress_kbar_3x3="_JSON [[-30.95038211, -1.62457469, 0.77423687], [-1.62457471, -33.31302842, 1.7444277], [0.77423688, 1.74442769, -11.71636227]]" pbc="T T T"
Ti       2.47641030      -0.89792578       0.02774642      -0.00297508      -0.00744610      -0.00139450
Ti       5.77022355       1.55095667       0.01196330      -0.00358053      -0.00547240      -0.00120059
Ti       4.99063438      -0.80737517       1.38508267      -0.00264683      -0.00601121       0.00107401
Ti       4.59163976       3.77382308       1.36932957      -0.00198152      -0.00477064       0.00105111
Ti       7.10259345       3.85929721       2.62030048      -0.00267529      -0.00191891       0.00425604
Ti       3.80923252       1.40955171       2.63579760       0.00049502      -0.00208341       0.00565339
Ti       1.66630130      -0.44202683       2.86917010      -0.00359401      -0.00641156       0.00775453
Ti       2.14385318       3.63307467       2.85327161      -0.00367104      -0.00580620       0.00869409
Ti       4.73267451       3.65343843       4.15304014      -0.00255438      -0.00351908       0.00493231
Ti       4.81627384      -0.74571630       4.16888803      -0.00447197      -0.00301106       0.00337156
Ti       3.44659842       5.87054548       5.23192053      -0.00399864      -0.00561197       0.00168744
Ti       2.95240199       1.80446303       5.24729611      -0.00350936      -0.00286640       0.00300430
Ti       2.40767140      -0.95176422       5.73352557      -0.00258635      -0.00371431       0.00667131
Ti       5.75800139       1.46484387       5.71763703      -0.00080458      -0.00462277       0.00835493
Ti       4.27908020       3.76509404       6.92892383      -0.00364840      -0.00240492       0.00872442
Ti       5.13864225      -1.08195111       6.94479559       0.00376789      -0.00826886       0.00686944
Ti       6.92443557       3.59682432       7.81852855      -0.00060144      -0.00538560       0.00014551
Ti       3.66981081       1.12432011       7.83377861       0.00073489      -0.00543593       0.00536623
Ti       6.37605419       0.88902160       8.57413526      -0.00436430      -0.00140401       0.00626158
Ti       1.59989727      -0.70468490       8.58983434      -0.00162811      -0.00338873       0.00327289
Ti       4.79199692       3.17966911       9.64759974      -0.00450689      -0.00093771       0.00618824
Ti       4.37731759      -0.93159830       9.66352087      -0.00435488       0.00129727       0.00700917
Ti       3.17612164       5.40832174      10.43639229      -0.00024842      -0.00432788       0.00218956
Ti       2.68760872       1.34001345      10.45215447      -0.00114721      -0.00013215       0.00464978
Ti       5.89555612       5.19686443      11.38983403       0.00283042      -0.00274812       0.00682026
Ti       5.57152600       1.03225229      11.40604901       0.00315401      -0.00313286       0.00925779
Ti       0.58958647       0.90842421      12.32855492       0.00424368      -0.00073326       0.00679986
Ti       3.85458784       3.37753484      12.31184150      -0.00022188      -0.00486119       0.00681252
Ti       3.30425986       0.64645410      13.13198822      -0.00199097       0.00335488       0.00301297
Ti       6.69610043       3.03888900      13.11673441       0.00139725       0.00281607       0.00156654
Ti       5.09089939       5.35296615      14.22755678       0.00099513       0.00160811       0.00639190
Ti       6.11374566       0.41121588      14.24395191       0.00341867       0.00140096       0.00399100
Ti       4.54043495       2.62943327      14.91674431       0.00053176       0.00445072       0.00510383
Ti       4.03192629      -1.42516221      14.93431313      -0.00238253       0.00395534       0.00308055
Ti       7.16003501       2.50303651      15.85482603       0.00478909       0.00299720      -0.00132391
Ti       2.61101529       0.78013174      15.86849845       0.00412497       0.00440338       0.00786531
Ti       5.74536687       4.78980494      17.10094715       0.00387310       0.00424647       0.00189732
Ti       5.30313175       0.69521238      17.11920225       0.00153875      -0.00118072       0.00085989
Ti       3.61557157       2.93732244      17.50889955       0.00377923      -0.00256200      -0.00194508
Ti       0.33701707       0.47868375      17.52369266       0.00441657       0.00851577      -0.00499000
Ti       2.88044716       0.50871329      18.65981352      -0.00071737       0.00936958      -0.00053277
Ti       6.80023360       2.59948823      18.64789389      -0.00398598      -0.00068637       0.00218151
Ti       4.93079956       5.20400591      19.97618244       0.00300086       0.00171518      -0.00101785
Ti       1.64960228       2.74036599      19.98832260      -0.00789042       0.00174316       0.00007936
Ti       4.40088966       2.40458883      20.13794102       0.00255772      -0.00001202      -0.00921582
Ti       3.92364269      -1.65659510      20.15114684       0.00717508       0.01182761      -0.00318222
Ti       6.89432766       2.50982531      21.41130038       0.00471067      -0.00351179       0.00869848
Ti       2.75987569       0.54461778      21.46584104       0.00385319      -0.00251503      -0.00879629
Ti       3.60641749       2.81249739      22.79545888      -0.00789632       0.00719952      -0.00363542
Ti       0.29927677       0.45527171      22.81926160       0.00356606       0.00238572       0.00125568
Ti       5.72126466       4.76544624      22.81732525      -0.00221088       0.01175904      -0.00008941
Ti       5.24047236       0.61326350      22.84082979       0.00573160      -0.00863002      -0.00573009
Ti       2.73450607       0.56149785      24.27669209      -0.00068387       0.00101831      -0.00345288
Zr       6.92139861       2.49673327      24.28544629       0.00868025       0.00638444      -0.00163443
Ti       3.95891642      -1.60962781      25.57506956       0.00782802       0.00910572      -0.00123436
Ti       4.33287403       2.40397152      25.57086220      -0.00607019      -0.00404452       0.00593011
Ti       1.60220282       2.72348183      25.84821820      -0.00339538      -0.00200591       0.01013298
Ti       4.99819175       5.20925871      25.83661493       0.01112899       0.00493855       0.00431003
Ti       2.92520357       0.50325108      27.12171683       0.00205483       0.01082501       0.00740485
Ti       6.69720506       2.65657790      27.15201694      -0.00401427       0.00049088       0.00319201
Ti       0.35042176       0.52919306      28.18514937       0.00320022       0.01176568       0.00701177
Ti       3.61437371       3.00333773      28.15680400       0.00372252       0.00391487      -0.00149573
Ti       5.32292661       0.71519377      28.71096225       0.00648702      -0.00532136      -0.00176156
Ti       5.72636393       4.85284019      28.70302531       0.00660077       0.00850285      -0.00095892
Ti       7.25392173       2.52331894      29.89378461       0.00278680       0.00234109      -0.00118308
Ti       2.56864915       0.88429871      29.91142632      -0.00061291       0.00365657       0.00493337
Ti       4.59045493       2.72867478      30.75038977      -0.00160993       0.00351716      -0.00686283
Ti       4.07296095      -1.33012190      30.77744093       0.00478564       0.01021818      -0.00209457
Ti       6.12721549       0.50201307      31.56009296      -0.00143384       0.00381361      -0.00484501
Ti       5.14321403       5.42040237      31.54685981       0.00694978       0.00748541      -0.00504397
Ti       3.38064987       0.71825115      32.61922347       0.00073346       0.00478959      -0.00911778
Ti       6.70616068       3.14310160      32.60040422      -0.00306195       0.00332962      -0.00029702
Ti       3.91935177       3.46322206      33.38477142       0.00266133      -0.00116035      -0.00926327
Ti       0.62088739       1.01730025      33.40335166       0.00605728       0.00011169      -0.00569563
Ti       2.17088401      -1.24349320      34.40833064       0.00022158       0.00517012       0.00050769
Ti       5.62234015       1.11741336      34.39577808      -0.00138045       0.00100356      -0.00229617
Ti       3.24106194       5.49989965      35.24730381       0.00418846       0.00402724      -0.00188107
Ti       2.72697191       1.43914132      35.26591242      -0.00030386       0.00447459       0.00160369
Ti       4.79120495       3.28741087      36.07548361      -0.00349188       0.00074220      -0.00581422
Ti       4.46278907      -0.87412976      36.09232523       0.00379932       0.00333373      -0.00824866
Ti       6.42351702       0.94303490      37.23251615      -0.00271333      -0.00199434       0.00009585
Ti       1.62374060      -0.63701645      37.24691998       0.00110396       0.00120640       0.00298433
Ti       6.97611714       3.67490871      37.84003321      -0.00501585       0.00361259      -0.00563849
Ti       3.71426775       1.21069585      37.85661748       0.00053410       0.00365164      -0.00465231
Ti       4.37858945       3.76986590      38.82562233       0.00134256      -0.00897282      -0.00774253
Ti       5.09369824      -0.99493755      38.83938919      -0.00299665       0.00103151      -0.00328558
Ti       5.75275254       1.49457115      40.10227294      -0.00546654      -0.00253851      -0.00214036
Ti       2.43753778      -0.94245178      40.11675884       0.00139579      -0.00482220      -0.00052590
Ti       3.45910858       5.90500481      40.43150567      -0.00262512      -0.00482701      -0.00884985
Ti       2.97594320       1.83148290      40.44807381      -0.00113427      -0.00191388      -0.01410329
Ti       4.68448226       3.69012753      41.61706319      -0.00514060      -0.00447032      -0.00849593
Ti       4.87242549      -0.76929630      41.63208701      -0.00409104      -0.00461417      -0.00501627
Ti       2.14373201       3.63209541      42.95510484      -0.00105112      -0.00391358      -0.00822054
Ti       1.66610709      -0.44255904      42.97074116      -0.00318408      -0.00388051      -0.00643863
Ti       7.10707701       3.85912857      43.07048920      -0.00344639      -0.00760616      -0.01158614
Ti       3.80728080       1.41302452      43.08682293      -0.00349711      -0.00588039      -0.01188287
Ti       4.61574562       3.75854252      44.38846169      -0.00048323      -0.00715948      -0.00400702
Ti       4.96544659      -0.79442580      44.40410657      -0.00576714      -0.00604450      -0.00417315
Ti       3.48158584       5.96443874      45.74257709      -0.00184392      -0.00170872      -0.00395521
Ti       3.01618193       1.88200459      45.75836099       0.00041220      -0.00110484      -0.00401408
