100
Lattice="4.4265 -2.555641 0.0 3.767997 6.526363 -0.031456 0.0 0.0 45.781652" Properties=species:S:1:pos:R:3:forces:R:3 job_name=CSL13-Zr-Zr-61-d-5.27 GB_type=CSL13 element=Zr system=Zr-61-d-5.27 distance=5.27 energy=-775.31999166 stress_kbar_3x3="_JSON [[-31.21637582, -2.31670236, 0.89545179], [-2.31670235, -33.17729784, 1.14228072], [0.89545177, 1.14228071, -11.79738022]]" pbc="T T T"
Ti       2.47563343      -0.90332270       0.03192358       0.00203135      -0.00029593      -0.00656394
Ti       5.76553848       1.54830615       0.01593960      -0.00336435      -0.00072943      -0.00543420
Ti       4.98228082      -0.81133997       1.40042291       0.00170662       0.00085138      -0.00490400
Ti       4.59214965       3.76492839       1.38467583      -0.00073366       0.00177173      -0.00220426
Ti       7.09804741       3.85311495       2.64365101       0.00152053       0.00170125       0.00010054
Ti       3.80591225       1.40304811       2.65953713       0.00062809       0.00222684      -0.00043322
Ti       1.65955908      -0.44928340       2.87912556       0.00165522       0.00071227      -0.00008800
Ti       2.14062889       3.62384586       2.86325174      -0.00112690       0.00105182       0.00004254
Ti       4.72411642       3.65016781       4.16872175      -0.00127727      -0.00495688       0.00007572
Ti       4.81714972      -0.75448450       4.18436060      -0.00365245      -0.00234148      -0.00031466
Ti       3.44529589       5.86779165       5.25178797      -0.00316661      -0.00499583      -0.00013503
Ti       2.95057622       1.80263332       5.26755929      -0.00337824      -0.00500823      -0.00034562
Ti       2.40669522      -0.95549513       5.74433676      -0.00542294      -0.00710684       0.00336915
Ti       5.75514555       1.46219226       5.72843045      -0.00480385      -0.00820528       0.00357105
Ti       4.27953373       3.76265636       6.94492600      -0.00314032      -0.00639957       0.00059298
Ti       5.13644494      -1.08299050       6.96059740      -0.00264952      -0.00570861       0.00062976
Ti       6.92325551       3.59547802       7.83339633      -0.00358950      -0.00535293      -0.00032880
Ti       3.66967062       1.12286087       7.84906868      -0.00278059      -0.00541478       0.00007349
Ti       6.37439145       0.88739592       8.58514412      -0.00308738      -0.00602364       0.00374797
Ti       1.59871502      -0.70641903       8.60096181      -0.00242834      -0.00554721       0.00440647
Ti       4.79130959       3.17560685       9.65939401      -0.00280624      -0.00006751       0.00711485
Ti       4.37252803      -0.93325936       9.67516126       0.00073874      -0.00265894       0.00557703
Ti       3.17472531       5.40255564      10.44625648      -0.00040143      -0.00068953       0.00897471
Ti       2.68283098       1.33607090      10.46200822      -0.00032974      -0.00139096       0.00837919
Ti       5.89282135       5.19009261      11.40151448      -0.00213193       0.00358538       0.00742146
Ti       5.56640819       1.02732961      11.41730677       0.00431004       0.00073463       0.00717730
Ti       0.58560471       0.90293058      12.33494285       0.00248433       0.00424691       0.01310406
Ti       3.84925412       3.37020525      12.31952526      -0.00030022       0.00461696       0.01087468
Ti       3.29768176       0.64249140      13.14053843       0.00339999      -0.00225015       0.00450485
Ti       6.69341972       3.03240391      13.12493030      -0.00245438       0.00392615       0.00249583
Ti       5.08373957       5.34991215      14.23720632       0.00472186       0.00666274       0.00118326
Ti       6.10887361       0.40682665      14.25268666       0.00016397       0.00593399       0.00339429
Ti       4.53461357       2.62722330      14.92327578       0.00220199       0.00619951       0.00445456
Ti       4.02542290      -1.43020355      14.93824284      -0.00093807       0.00994092       0.00515945
Ti       7.15270033       2.50347985      15.86225302       0.00556841       0.00894667      -0.00319657
Ti       2.60821963       0.77651577      15.87793665      -0.00032854       0.00896145       0.00087907
Ti       5.73754780       4.79353839      17.10784105       0.00475514       0.01582399       0.00096825
Ti       5.29541222       0.69556760      17.12512928       0.00021148       0.00447541       0.00102053
Ti       3.60947273       2.94202609      17.51492438      -0.00242892       0.00449403       0.00267777
Ti       0.32816715       0.48269203      17.52983675       0.00610342       0.01255759       0.00036590
Ti       2.86939715       0.51818364      18.66938578       0.00991535       0.00429264      -0.00194975
Ti       6.78905755       2.60786474      18.65357613       0.00754815       0.00911405       0.00016477
Ti       4.92097851       5.21339577      19.96961270       0.00770829       0.01348832       0.00377793
Ti       1.63517077       2.76397498      19.98939747       0.00407085      -0.00282666       0.00308737
Ti       4.38862477       2.43036095      20.14760847      -0.00046303      -0.00221323       0.00047617
Ti       3.91659853      -1.64721996      20.16203573       0.00462295       0.01317782       0.00154750
Ti       6.88976585       2.53993597      21.43700650      -0.00120444       0.00871065       0.00824230
Ti       2.74772235       0.56648304      21.44971424       0.00103937      -0.00564674      -0.00263746
Ti       3.57809345       2.89614546      22.80864777       0.00694132       0.00241626       0.00365517
Ti       0.28665758       0.45238855      22.84349681       0.00915501       0.00550561      -0.00394787
Ti       5.72666185       4.75142773      22.81643670       0.00445529       0.00290978      -0.00269325
Ti       5.24545600       0.68387591      22.83779700       0.01273886       0.00605155       0.00426469
Ti       2.74902253       0.57349027      24.22223823       0.00011840       0.01005682       0.00034392
Ti       6.91158483       2.55022544      24.21503161      -0.00392218      -0.00046259       0.00057846
Ti       3.95012186      -1.62138388      25.54590229       0.00549170       0.00401893      -0.00566586
Ti       4.39613331       2.44363230      25.43795766       0.00846745       0.00481412      -0.00702260
Ti       1.63459064       2.80281645      25.67918429       0.00353340       0.00563302      -0.00098233
Ti       4.94370964       5.22648375      25.66705976      -0.00827471       0.00376955      -0.00028125
Ti       2.87593600       0.54887291      26.99298081       0.00418286       0.01365439      -0.00585039
Ti       6.78503887       2.69789562      26.99341561       0.00324322       0.00564100      -0.00206643
Ti       0.37979493       0.50522432      28.22378426      -0.00196410      -0.00209947      -0.00077524
Zr       3.68922966       3.03416340      28.21727061       0.00371849      -0.00131634      -0.00134203
Ti       5.29402603       0.70060294      28.58075772       0.00927378      -0.00088325       0.00402370
Ti       5.87233001       4.91673433      28.59327926      -0.00167420       0.00095924      -0.00016526
Ti       7.12728876       2.63900170      29.85917068      -0.00074765       0.00763766      -0.00344573
Ti       2.69825849       0.80215113      29.87709901      -0.00539095       0.01216435       0.00533054
Ti       4.57330291       2.64279603      30.91181103      -0.00124965      -0.00115060       0.00834582
Ti       4.10559972      -1.37060372      30.86939924       0.00579805       0.00592545       0.00157479
Ti       1.77624194       3.02063658      31.48308119      -0.00252124       0.00060033       0.00407595
Ti       5.13112849       5.39165189      31.44518375      -0.00827196      -0.00006158      -0.00391801
Ti       3.31267665       0.70988014      32.64023008      -0.00962880       0.00274578       0.00211746
Ti       6.76104116       3.08485607      32.61958359       0.00234438      -0.01844914       0.00420275
Ti       3.90385993       3.43084078      33.46785953      -0.00168627      -0.00994299       0.01070832
Ti       0.62506695       0.94234327      33.46737460       0.00293937      -0.00185884       0.00022056
Ti       5.93859208       5.25542641      34.32778504      -0.00689044      -0.00026906      -0.00416912
Ti       5.60924282       1.07824965      34.33043142      -0.00559651      -0.00619859      -0.00714361
Ti       3.20306200       5.46402475      35.30559006      -0.00162152      -0.00767020       0.00178875
Ti       2.72176322       1.39827005      35.31998161       0.00170460      -0.01072699      -0.00891190
Ti       4.83115635       3.23285524      36.10698784      -0.00542060      -0.01591577       0.00023538
Ti       4.41821914      -0.86932524      36.11888989      -0.00641837      -0.00015352      -0.00304308
Ti       6.39960696       0.95444935      37.20190568       0.00316540      -0.00883902      -0.00772131
Ti       1.63607101      -0.65068017      37.21990048      -0.00220087      -0.00623432      -0.00136769
Ti       6.96685611       3.66095987      37.90690697       0.00316019      -0.01550405      -0.00897458
Ti       3.69206030       1.18384219      37.92694169      -0.00490326       0.00028110      -0.00139328
Ti       4.33293995       3.80018821      38.82470525      -0.00104903      -0.00729389      -0.00527436
Ti       5.14351290      -1.01618326      38.84031440      -0.00176457      -0.01227401       0.00156936
Ti       5.77002009       1.49822333      40.08287599      -0.00486669      -0.00913262       0.00210424
Ti       2.42414412      -0.92042293      40.10014443       0.00181788      -0.00400860       0.00228071
Ti       3.46002259       5.90702449      40.48536411       0.00056430       0.00041389       0.00402681
Ti       2.97461276       1.84084379      40.50531115      -0.00891730      -0.00656980       0.00225013
Ti       4.71141086       3.68913695      41.61641909      -0.00377793      -0.00547877      -0.00641644
Ti       4.85197335      -0.74451694      41.63122265       0.00099699      -0.00778495      -0.00652498
Ti       2.14624660       3.63917543      42.95033655      -0.00329532      -0.00524881      -0.00220595
Ti       1.66610381      -0.43552517      42.96618197      -0.00044415      -0.00019010      -0.00661909
Ti       7.10746752       3.86714766      43.10268063      -0.00281583       0.00370491      -0.00927242
Ti       3.81051442       1.41948461      43.11924727       0.00040093      -0.00688140      -0.01105655
Ti       4.61011773       3.76378519      44.39993790      -0.00376835      -0.00024286      -0.00674883
Ti       4.97160401      -0.79572047      44.41524490      -0.00197447       0.00038947      -0.00982652
Ti       3.48236376       5.96089930      -0.01445141      -0.00017093       0.00166537      -0.01015599
Ti       3.01227589       1.88159334       0.00185055      -0.00170125      -0.00049119      -0.00981282
