100
Lattice="4.4265 -2.555641 0.0 3.767997 6.526363 -0.031456 0.0 0.0 45.781652" Properties=species:S:1:pos:R:3:forces:R:3 job_name=CSL13-Zr-Zr-56-d-2.88 GB_type=CSL13 element=Zr system=Zr-56-d-2.88 distance=2.88 energy=-775.54909632 stress_kbar_3x3="_JSON [[-31.44755386, -2.6897334, 0.97001095], [-2.68973341, -33.23825445, 1.26887507], [0.97001094, 1.26887508, -13.26146032]]" pbc="T T T"
Ti       2.46837401      -0.91123923       0.03366370      -0.00241176      -0.00168477       0.00094336
Ti       5.76400014       1.53704069       0.01773564      -0.00040412      -0.00185654      -0.00027542
Ti       4.98315775      -0.82027847       1.39201178      -0.00035036      -0.00083401       0.00305037
Ti       4.58512531       3.76047616       1.37547180      -0.00178359      -0.00187319       0.00164691
Ti       7.09566281       3.84675897       2.63152813      -0.00000989      -0.00209150       0.00129299
Ti       3.80218251       1.39727870       2.64724380      -0.00069865      -0.00293351       0.00114983
Ti       1.65858509      -0.45485825       2.87828687      -0.00027262      -0.00240007       0.00340409
Ti       2.13693556       3.61972576       2.86256977      -0.00252685      -0.00268142       0.00277843
Ti       4.72199238       3.64343547       4.16188469       0.00035309      -0.00217438       0.00270097
Ti       4.81308036      -0.75982857       4.17805590      -0.00163567      -0.00084873       0.00216434
Ti       3.44103243       5.86126198       5.24926123      -0.00117055      -0.00022913       0.00201578
Ti       2.94766213       1.79507078       5.26485426      -0.00135587      -0.00247878       0.00189878
Ti       2.40396122      -0.96336115       5.74387496      -0.00011349      -0.00056665       0.00253493
Ti       5.75057101       1.45511527       5.72812181      -0.00099893      -0.00118116       0.00171742
Ti       4.28152507       3.75550745       6.94436950      -0.00120016      -0.00078477       0.00070080
Ti       5.13047215      -1.08564177       6.96015190      -0.00036727      -0.00216927       0.00076327
Ti       6.92354466       3.59407298       7.84059964       0.00126948      -0.00043694      -0.00104522
Ti       3.66960631       1.12227959       7.85591093      -0.00227889      -0.00222153       0.00069099
Ti       6.37484071       0.88593716       8.58712297      -0.00002434      -0.00272446      -0.00002321
Ti       1.59861224      -0.70750700       8.60307490       0.00001344       0.00062043      -0.00019969
Ti       4.78832655       3.18393871       9.66883231      -0.00080984       0.00006984      -0.00381974
Ti       4.38151993      -0.93177142       9.68415600       0.00036613      -0.00156378      -0.00231949
Ti       3.18172654       5.41213395      10.45672986      -0.00241276       0.00138090      -0.00020990
Ti       2.68838455       1.34479888      10.47217382       0.00024016      -0.00227697       0.00074782
Ti       5.89685147       5.20350115      11.40196160       0.00310237       0.00258263       0.00042037
Ti       5.57650742       1.03781504      11.41709809      -0.00306444      -0.00232144       0.00235752
Ti       0.59320479       0.92162862      12.35155594      -0.00057654       0.00379130       0.00299696
Ti       3.85954566       3.38392351      12.33697336      -0.00243252      -0.00163932       0.00404797
Ti       3.31296749       0.65471161      13.15084005       0.00165114       0.00167244       0.00437496
Ti       6.69551445       3.05215714      13.13409069      -0.00059723      -0.00091436       0.00546191
Ti       5.09532977       5.36550032      14.23520978       0.00203871       0.00370328       0.00232804
Ti       6.11264493       0.42534180      14.25156297      -0.00077532      -0.00331752       0.00828262
Ti       4.54651246       2.64870539      14.95005351      -0.00367915      -0.00650577       0.00926263
Ti       4.03433336      -1.40804618      14.96191671       0.00463332       0.00767913       0.00380515
Ti       7.17696287       2.50747279      15.86806708      -0.00402238      -0.00484166       0.00508936
Ti       2.59997098       0.79888864      15.88552409       0.00485986       0.00916784       0.00307803
Ti       5.73597639       4.80305067      17.10192711      -0.00258305       0.00099984      -0.00322532
Ti       5.30174723       0.70027506      17.11496723      -0.00128134       0.00575786       0.00288407
Ti       3.61057463       2.94906799      17.54262463      -0.00095818      -0.01069850      -0.00574101
Ti       0.33447941       0.49563308      17.55385600       0.00881918       0.00604728      -0.00578310
Ti       2.88570769       0.50995700      18.67360483       0.00352384       0.01040146      -0.01153647
Ti       6.77597238       2.61384840      18.65487523      -0.00330111      -0.00689534      -0.01007524
Ti       4.91937307       5.20707413      19.96925985       0.00172122       0.00006348      -0.00197471
Ti       1.63124369       2.75306704      19.97621970       0.00074501      -0.00082150      -0.00912969
Ti       4.38499585       2.41965395      20.17142643      -0.00431061       0.00060960      -0.00598696
Ti       3.91016939      -1.65587624      20.18450998       0.00226185       0.00826696       0.00539984
Ti       6.89301057       2.52219831      21.44174126       0.00375845       0.00207126       0.00745897
Ti       2.72414638       0.55386292      21.46195492       0.00250652      -0.00136414       0.00395088
Ti       3.56844494       2.86683606      22.84356913      -0.00120337       0.00872341       0.00438037
Ti       0.28452458       0.43165945      22.86753600      -0.00596852      -0.00138541       0.01379695
Ti       5.71298559       4.72742908      22.82776553       0.00466266      -0.00028562       0.01212941
Ti       5.23444724       0.67149442      22.78626528       0.00535801      -0.00177437       0.00572069
Ti       2.76352640       0.51348840      24.25677087      -0.00550583      -0.00274283       0.00929060
Ti       6.88267585       2.52486083      24.20185792       0.00406325       0.00773826       0.00935070
Ti       3.81314317      -1.73539062      25.52211067       0.00022071      -0.01143936      -0.00278276
Ti       4.40965031       2.49884804      25.51660188       0.00302134       0.00331233      -0.00175402
Zr       5.99730741       0.16646871      25.74753074      -0.00478428       0.00034996       0.01389980
Ti       4.88364160       5.23963681      25.74231450       0.00085337       0.00872931      -0.01292924
Ti       2.97688704       0.43667591      27.10889691      -0.00455412      -0.00158620      -0.01207891
Ti       6.75369036       2.65360333      27.11457464       0.00035929       0.00166688      -0.01138148
Ti       0.37085887       0.53782819      28.14005183       0.00055565      -0.00195301      -0.00639107
Ti       3.65794444       2.97233818      28.17011138       0.00307835       0.00654527      -0.00425344
Ti       5.34861775       0.73068299      28.77582808       0.00680976       0.00154668       0.00176452
Ti       5.72234013       4.84219220      28.64032908       0.00125128       0.00137458      -0.00227200
Ti       7.28028724       2.53877659      29.87787493       0.00274358       0.00129390       0.00366933
Ti       2.57831214       0.88307850      29.88137406       0.00076350       0.00065338       0.00629003
Ti       4.60705849       2.74321240      30.75155238      -0.00046282       0.00472559       0.00370138
Ti       4.09399105      -1.32473410      30.74638303      -0.00062046       0.00306902       0.00336035
Ti       6.15639613       0.50478742      31.56750275      -0.00048158       0.00134325       0.00463222
Ti       5.16703853       5.43145937      31.53054044       0.00021969       0.00193919       0.00192711
Ti       3.40281673       0.71351724      32.59311999      -0.00018722      -0.00143217       0.00208868
Ti       6.73770112       3.16244773      32.58901240       0.00091556       0.00237431       0.00038072
Ti       3.94595286       3.46266998      33.37758488       0.00243075       0.00271403      -0.00297436
Ti       0.64336868       1.03035370      33.38730156       0.00271043       0.00128535      -0.00529792
Ti       2.18636377      -1.22903190      34.40626181       0.00152190       0.00290459      -0.00532191
Ti       5.63031275       1.12795957      34.39120032       0.00083861      -0.00012001      -0.00363353
Ti       3.25571883       5.50530029      35.23266637       0.00035926       0.00393033      -0.00840957
Ti       2.74874777       1.45496444      35.24094772      -0.00149408      -0.00024779      -0.00593676
Ti       4.80015668       3.29860945      36.06940880      -0.00041850       0.00217442      -0.00491303
Ti       4.48884908      -0.87568114      36.08188878       0.00244999       0.00015209      -0.00637154
Ti       6.43131706       0.94380046      37.23574497      -0.00072699      -0.00140634      -0.00059421
Ti       1.62805581      -0.63081160      37.25067281       0.00019335       0.00136012      -0.00054240
Ti       6.98770204       3.68176628      37.82155491       0.00302103      -0.00048103      -0.00295433
Ti       3.71933156       1.21426014      37.83603920       0.00084857      -0.00207876      -0.00347367
Ti       4.39324399       3.75785501      38.82249643      -0.00014340      -0.00163186       0.00153986
Ti       5.08186121      -0.99058489      38.83910375      -0.00174621       0.00065521      -0.00059141
Ti       5.74668071       1.48803917      40.10641908      -0.00216221      -0.00158780       0.00307456
Ti       2.43725975      -0.95295151      40.12345492      -0.00222494      -0.00107806       0.00061730
Ti       3.45600474       5.89640831      40.41706795      -0.00040549      -0.00294392      -0.00242683
Ti       2.97540970       1.82434360      40.43194836       0.00123975       0.00049798      -0.00257592
Ti       4.67302133       3.68213580      41.61701615      -0.00417583      -0.00273196      -0.00020733
Ti       4.87467989      -0.78404799      41.63257724       0.00112534      -0.00155243      -0.00216442
Ti       2.13751475       3.61961555      42.95848351       0.00059098      -0.00208975      -0.00302580
Ti       1.65992149      -0.45602561      42.97433752       0.00044056      -0.00489390      -0.00392526
Ti       7.10102595       3.84589633      43.06347524      -0.00380890      -0.00475016      -0.00133109
Ti       3.80100326       1.40109105      43.07924115      -0.00177190       0.00087003      -0.00329645
Ti       4.61098419       3.74396748      44.39061651      -0.00112532      -0.00404635      -0.00579193
Ti       4.95656210      -0.80642317      44.40720918       0.00042748      -0.00050877      -0.00378640
Ti       3.47401951       5.95200269      45.74564883      -0.00249862      -0.00376477      -0.00395140
Ti       3.01064428       1.86934186      45.76121591      -0.00005969      -0.00297123      -0.00432941
