100
Lattice="4.4265 -2.555641 0.0 3.767997 6.526363 -0.031456 0.0 0.0 45.781652" Properties=species:S:1:pos:R:3:forces:R:3 job_name=CSL13-Zn-Zn-63-d-5.77 GB_type=CSL13 element=Zn system=Zn-63-d-5.77 distance=5.77 energy=-768.23959241 stress_kbar_3x3="_JSON [[-35.60815784, -2.28951757, 0.08521178], [-2.28951756, -39.62063786, 2.1673652], [0.08521184, 2.16736521, -18.46562078]]" pbc="T T T"
Ti       2.42487135      -0.96165239       0.06488009      -0.00384134      -0.00278977       0.00433263
Ti       5.72014450       1.48653052       0.05086519      -0.00080575      -0.00215691       0.00419303
Ti       4.96468589      -0.88514908       1.39298133      -0.00088999      -0.00291402       0.00078234
Ti       4.52333205       3.72213972       1.37729728      -0.00150376      -0.00083123      -0.00075643
Ti       7.05606162       3.78955304       2.59523129      -0.00138142       0.00063870      -0.00399428
Ti       3.76318639       1.33799833       2.60930709       0.00219895      -0.00630746      -0.00478324
Ti       1.62751430      -0.51237768       2.91543398      -0.00242279      -0.00118783      -0.00016757
Ti       2.09121560       3.56868693       2.89544885      -0.00300973      -0.00486338       0.00090264
Ti       4.72060560       3.56339312       4.17755087       0.00177605      -0.00601515       0.00227944
Ti       4.74198019      -0.79962324       4.19749239      -0.00387103      -0.00228474      -0.00145328
Ti       3.39580605       5.77724075       5.21326319      -0.00325982      -0.00451505      -0.00376793
Ti       2.90516636       1.71846811       5.22896658      -0.00362388      -0.00569696      -0.00428326
Ti       2.35101226      -1.02499209       5.78990055      -0.00280841      -0.00494400       0.00174303
Ti       5.72596546       1.37850137       5.77449014      -0.00112255      -0.00511515       0.00250315
Ti       4.20971432       3.68864779       6.95809746      -0.00659926      -0.00526896      -0.00104708
Ti       5.13143906      -1.19338267       6.97201809       0.00082728      -0.00922639      -0.00056108
Ti       6.88411231       3.49348052       7.81839893      -0.00428742      -0.00818614      -0.00227974
Ti       3.61562521       1.01454518       7.82703309      -0.00422786      -0.00725964      -0.00237268
Ti       6.32714245       0.80219592       8.63355548      -0.00198750      -0.00723955       0.00357026
Ti       1.56938362      -0.80640034       8.65578991      -0.00374297      -0.00746062       0.00374880
Ti       4.77471945       3.06539443       9.67224425      -0.00359574      -0.00786197      -0.00257072
Ti       4.32780063      -1.01955865       9.68636900      -0.00485165      -0.00649378      -0.00189249
Ti       3.12488254       5.30989771      10.45981714      -0.00478631      -0.00631918      -0.00028102
Ti       2.66762605       1.23226958      10.47452879      -0.00063884      -0.00848115      -0.00273630
Ti       5.87498278       5.09649496      11.47294607      -0.00175088      -0.00777282       0.00375848
Ti       5.54410958       0.93157771      11.49542648      -0.00381925      -0.00623117       0.00437419
Ti       0.56247115       0.79447297      12.33411445      -0.00370979      -0.00646415      -0.00343059
Ti       3.82919295       3.27562287      12.32548147      -0.00438350      -0.00647977      -0.00314129
Ti       3.24415692       0.57996067      13.18287818      -0.00718788      -0.00269348      -0.00168892
Ti       6.71934461       2.92523982      13.16814586       0.00092533      -0.00777620      -0.00134473
Ti       5.08057317       5.28527655      14.34254808      -0.00162178      -0.00173554       0.00030511
Ti       1.70510368       2.88162338      14.35644524       0.00055417      -0.00426847       0.00236081
Ti       4.52640893       2.53456904      14.91828716      -0.00166380      -0.00433732      -0.00713237
Ti       4.03121335      -1.51977306      14.93522384      -0.00147309      -0.00490035      -0.00906525
Ti       7.11318483       2.48088734      15.93765516      -0.00646990      -0.00046538      -0.00250806
Ti       2.69430778       0.68344093      15.96025915       0.00452102      -0.00111330      -0.00461577
Ti       5.79337387       4.73571851      17.24161393      -0.00219875       0.00118412      -0.00253179
Ti       5.31759384       0.66116694      17.26188983      -0.00159772       0.00208014      -0.00250181
Ti       3.64310585       2.88126859      17.52003869       0.00210660       0.00045825      -0.00820988
Ti       0.35732144       0.42381263      17.53585112      -0.00071755       0.00337119      -0.00378564
Ti       2.87170003       0.49475990      18.76088280      -0.00124603       0.00278669      -0.00253492
Ti       6.87870331       2.53081809      18.74617523       0.00118068       0.00091688       0.00062456
Ti       4.95990598       5.16655464      20.12831148      -0.00108714       0.00733664       0.00359052
Ti       1.69481929       2.70637730      20.14618118       0.00231295       0.00727633       0.00103381
Ti       4.44165552       2.36731626      20.16810234       0.00085520      -0.00204056      -0.00618351
Ti       3.95522819      -1.70459251      20.17573327      -0.00372970       0.00273032      -0.00427351
Ti       6.88439104       2.48384591      21.54726376       0.00042340       0.00682732       0.00060241
Ti       2.84563029       0.48187683      21.55472123       0.00242037      -0.00067895       0.00316559
Ti       3.61395081       2.84246191      22.80647661       0.00226586       0.00365745       0.00323312
Ti       0.33475768       0.35881762      22.79831886       0.00285874       0.01031973       0.00071784
Ti       5.77338844       4.67335637      23.02557194      -0.00239038       0.01127096       0.00302258
Ti       5.30025002       0.60877568      23.00720222      -0.00212708       0.00088238       0.00189834
Ti       2.65418145       0.57281815      24.35460789      -0.00137889       0.00589091       0.00373365
Ti       7.03612034       2.40014274      24.39581317       0.00734201       0.00276209      -0.00041258
Ti       4.02052353      -1.58862439      25.34164543       0.00056339      -0.00144910      -0.00471106
Ti       4.42592770       2.39172176      25.41013570       0.00247050       0.00832430      -0.00558821
Ti       1.65227121       2.74821438      25.94301581       0.00016858       0.00641394       0.00571581
Ti       5.09062807       5.13407753      25.88003208      -0.00276160       0.01103288       0.00056763
Ti       3.16057903       0.50054947      27.14712540       0.00401751       0.00261424       0.00020782
Ti       6.43722691       2.87481416      27.14508987       0.01264900       0.00687851       0.00417193
Ti       4.74309046      -1.89629640      27.95680373       0.00004453       0.00696839       0.00050337
Ti       3.70189785       3.35027484      27.90144093      -0.00009543       0.00702122       0.00428000
Ti       5.45599558       0.81647268      28.76712364       0.00244414       0.00808394      -0.00018884
Zn       5.72840470       5.04501663      28.80661635       0.00394447       0.00523187       0.00064672
Ti       7.37080932       2.80693237      29.79471885       0.00124060       0.00287571      -0.00646448
Ti       2.42084409       1.14769892      29.79301141       0.00281967       0.00843260      -0.00357065
Ti       4.61435827       2.95606247      30.52822004       0.00385445       0.00530512      -0.00294606
Ti       4.17647659      -0.98694761      30.55338113       0.00857893       0.00741984      -0.00014017
Ti       6.24631521       0.74511156      31.60226854       0.00415309       0.00367564      -0.00284408
Ti       5.23839565       5.61012539      31.60358078       0.00464344       0.00447366       0.00233482
Ti       3.49135813       0.97760268      32.37384308       0.00324057       0.00444574      -0.00325351
Ti       6.74707101       3.40875580      32.43006247       0.00385930       0.00310830       0.00035264
Ti       4.11405553       3.62314012      33.27036493       0.00562017       0.00324013       0.00041900
Ti       5.00817641      -1.25282994      33.25044492       0.00227079       0.00376243       0.00516958
Ti       2.26996558      -1.08586714      34.45879822       0.00370537      -0.00011431       0.00507702
Ti       5.62881866       1.28976964      34.46599790       0.00214129       0.00157110       0.00969317
Ti       3.31204901       5.71443679      34.99519137       0.00338340       0.00210660       0.00005126
Ti       2.80871997       1.65198352      35.00347418      -0.00096682       0.00277450      -0.00082791
Ti       4.64969025       3.49793219      36.03066847       0.00181380       0.00413678       0.00116798
Ti       4.67135144      -0.86469017      36.05353591       0.00308258      -0.00119089       0.00643471
Ti       2.03707542       3.50986642      37.32164516      -0.00215321       0.00141628       0.00485880
Ti       1.56773289      -0.56890207      37.34165479       0.00216446       0.00007663       0.00384584
Ti       6.99538525       3.73524085      37.61380906       0.00449423       0.00289071       0.00091818
Ti       3.70856978       1.28747772      37.61902778       0.00165978      -0.00017379       0.00023732
Ti       4.47562263       3.68105178      38.83451278      -0.00164290      -0.00016585       0.00279935
Ti       4.92133836      -0.92698624      38.85194622      -0.00060989       0.00043180      -0.00192396
Ti       5.69061789       1.45826381      40.17220634      -0.00298394      -0.00107146      -0.00172491
Ti       2.39402898      -0.98793664      40.18476523       0.00458752      -0.00270151      -0.00367879
Ti       3.39793749       5.87249013      40.28714290       0.00410252      -0.00180159      -0.00354513
Ti       2.93634325       1.78900364      40.30089334      -0.00127755       0.00220001      -0.00126066
Ti       4.57148864       3.66397922      41.61264442      -0.00261860      -0.00212369       0.00346906
Ti       4.86888318      -0.85880613      41.62868858       0.00117686       0.00136188      -0.00018378
Ti       2.07824763       3.57343258      43.00028935       0.00158404      -0.00291724       0.00546390
Ti       1.61554983      -0.51118086      43.01611861      -0.00092760      -0.00122866       0.00723004
Ti       7.05611314       3.79021545      42.99464466      -0.00371999      -0.00081035       0.00209286
Ti       3.74065934       1.35292448      43.00757673      -0.00006685       0.00451837      -0.00001874
Ti       4.58347695       3.67919964      44.37989509       0.00141563      -0.00217493       0.00131336
Ti       4.88758403      -0.84620610      44.39658499      -0.00271638      -0.00042882       0.00403411
Ti       3.42993703       5.89922836      45.69899072      -0.00001001      -0.00262953       0.00023178
Ti       2.96541230       1.81713140      45.71580993      -0.00010133      -0.00182503      -0.00058569
