100
Lattice="4.4265 -2.555641 0.0 3.767997 6.526363 -0.031456 0.0 0.0 45.781652" Properties=species:S:1:pos:R:3:forces:R:3 job_name=CSL13-Cu-Cu-51-d-0.00 GB_type=CSL13 element=Cu system=Cu-51-d-0.00 distance=0.0 energy=-769.9943137 stress_kbar_3x3="_JSON [[-38.37591101, -1.97226583, 0.63730259], [-1.97226586, -38.88709002, 1.05080065], [0.63730256, 1.05080067, -19.65995779]]" pbc="T T T"
Ti       2.46203200      -0.92291140       0.02076096      -0.00077941      -0.00316052       0.00126432
Ti       5.75402513       1.52746935       0.00525314      -0.00215151      -0.00239958       0.00087590
Ti       4.97490780      -0.83021504       1.39028266      -0.00023163      -0.00178125      -0.00029187
Ti       4.57780390       3.74921396       1.37421192       0.00067486       0.00074208      -0.00008155
Ti       7.08822254       3.83635264       2.63371825      -0.00010354      -0.00232859       0.00021363
Ti       3.79522364       1.38717093       2.64871233      -0.00278685      -0.00450046       0.00135191
Ti       1.64893300      -0.46826708       2.88357672      -0.00013938      -0.00046691       0.00166671
Ti       2.12818886       3.60612121       2.86691536       0.00029124      -0.00059469       0.00232951
Ti       4.71749181       3.62659325       4.17325922      -0.00031829      -0.00021744       0.00135393
Ti       4.80001151      -0.77161619       4.19135346      -0.00085228      -0.00059938      -0.00130192
Ti       3.43106062       5.84350217       5.25656010      -0.00188658      -0.00140367      -0.00064125
Ti       2.93830911       1.77850019       5.27175766      -0.00026069      -0.00182786      -0.00042289
Ti       2.39136626      -0.97915284       5.76794227      -0.00055977      -0.00158617      -0.00068266
Ti       5.74288022       1.43618924       5.75214203       0.00042199       0.00106373      -0.00022109
Ti       4.26307211       3.73826129       6.96569886      -0.00046927      -0.00171578       0.00177430
Ti       5.12963749      -1.11229019       6.98119417       0.00109539      -0.00204427       0.00068353
Ti       6.91530447       3.56604759       7.85548846      -0.00020305      -0.00188517       0.00101219
Ti       3.65134020       1.09450396       7.86906805      -0.00095933       0.00168654       0.00211075
Ti       6.35922230       0.86636321       8.62600066       0.00135530      -0.00112296       0.00202759
Ti       1.59162687      -0.73414101       8.64270350      -0.00147737      -0.00084251       0.00107261
Ti       4.78733045       3.14853557       9.69554015       0.00101309       0.00217829      -0.00335097
Ti       4.36150945      -0.95458376       9.70843293       0.00005995      -0.00113987       0.00087390
Ti       3.15905869       5.38189427      10.48777736      -0.00193348      -0.00131012       0.00059009
Ti       2.68242782       1.31015295      10.50243204      -0.00133156       0.00078558      -0.00228283
Ti       5.88949159       5.17360462      11.46664292       0.00006889      -0.00204397       0.00193629
Ti       5.56429320       1.00636059      11.48473738       0.00296743      -0.00022868      -0.00109561
Ti       0.57925869       0.88321930      12.37223728       0.00000944      -0.00085511       0.00031723
Ti       3.84692291       3.35289010      12.35953544       0.00140948       0.00331572       0.00199264
Ti       3.28099521       0.64739541      13.19684198      -0.00191189      -0.00168183       0.00292234
Ti       6.70962826       3.00675882      13.18609760      -0.00016102      -0.00048293       0.00171000
Ti       5.08732069       5.35338307      14.31773517      -0.00158268       0.00269792       0.00283264
Ti       6.11929155       0.40416022      14.35076305      -0.00118699       0.00178653       0.00062286
Ti       4.53432841       2.62151873      14.96992727       0.00184775       0.00345856      -0.00559106
Ti       4.03306587      -1.43931270      14.97222652      -0.00198919      -0.00196107       0.00551460
Ti       7.13037241       2.52435416      15.95306297       0.00565735       0.00797122      -0.00137866
Ti       2.65910869       0.77957319      15.95362023       0.00037363      -0.01020213       0.00623465
Ti       5.77888218       4.81095635      17.18382522       0.00695011       0.00622851       0.00312380
Ti       5.31637751       0.72168644      17.25855506      -0.00281922      -0.00278021       0.00366322
Ti       3.63630698       2.97132867      17.58846329       0.00586224       0.00434961      -0.00367034
Ti       0.35034389       0.49164420      17.55958016      -0.00284387      -0.00307657       0.00151608
Ti       2.87609886       0.57623298      18.74716279      -0.00776563      -0.00943031       0.00046247
Ti       6.80395607       2.60924180      18.78206407       0.00376435       0.01586285       0.00068857
Ti       4.94906680       5.22277456      20.00572301       0.00753488       0.01462490      -0.00191581
Ti       1.69050404       2.78142099      20.19349325      -0.00136258      -0.00397650      -0.00391905
Ti       4.42363362       2.46245536      20.25395611       0.00290578       0.00311377      -0.00333561
Ti       3.97650162      -1.62322177      20.15969747      -0.00592028      -0.00397948      -0.00684786
Ti       6.98902069       2.70938679      21.56537729       0.00432799       0.00960209      -0.00420626
Ti       2.84843835       0.49684823      21.51188195      -0.00545036      -0.01008767      -0.00291420
Ti       3.49557357       2.91009649      22.87157990       0.00587357       0.00070071      -0.00054715
Ti       4.80180108      -1.59935006      22.88403192       0.00128099      -0.00273288      -0.00022498
Ti       5.59964440       4.84340084      22.86292470       0.00571031       0.01064202       0.00018494
Cu       5.25090733       1.10381414      22.87564110      -0.00309129       0.00316532       0.00028898
Ti       2.84872821       0.49984525      24.25495716      -0.00575258      -0.00995907       0.00251785
Ti       6.99441799       2.71306281      24.16538291       0.00336339       0.00984816       0.00361239
Ti       3.98550431      -1.61319556      25.60914333      -0.00630367      -0.00423948       0.00665441
Ti       4.43326343       2.46943398      25.48402224       0.00318948       0.00440591       0.00326486
Ti       1.70143107       2.79084587      25.56314803      -0.00147768      -0.00441219       0.00298774
Ti       4.95685855       5.23118271      25.72339437       0.00788897       0.01319230       0.00157394
Ti       2.89679508       0.58759122      27.02320467      -0.00850926      -0.01002073      -0.00242466
Ti       6.80878733       2.62928384      26.95337173       0.00335368       0.01579618       0.00001587
Ti       0.36798243       0.51598159      28.19763436      -0.00276467      -0.00321644      -0.00362285
Ti       3.65207445       2.99676805      28.13882003       0.00695007       0.00637766       0.00233403
Ti       5.33919275       0.74259890      28.50361609      -0.00302724      -0.00377111      -0.00266688
Ti       5.79039580       4.83915813      28.54874908       0.00479816       0.00476798      -0.00099965
Ti       7.16731389       2.54732640      29.78419408       0.00605595       0.00785276       0.00073307
Ti       2.65943723       0.82262217      29.81607387      -0.00066856      -0.01060233      -0.00404893
Ti       4.56151362       2.66951083      30.74653574       0.00203109       0.00367662       0.00650373
Ti       4.06570197      -1.39023689      30.77591334      -0.00318902      -0.00411377      -0.00399857
Ti       6.13543387       0.45560089      31.41410766      -0.00054854       0.00114745      -0.00016776
Ti       5.12450753       5.39016787      31.41665825      -0.00212675       0.00243209      -0.00348784
Ti       3.33263668       0.69143091      32.55902447      -0.00216617      -0.00131508      -0.00435228
Ti       6.72315797       3.07294913      32.53854775      -0.00007101       0.00100054      -0.00321403
Ti       3.89190317       3.41694412      33.35595023       0.00190328       0.00165795      -0.00229396
Ti       0.61408008       0.95286456      33.37499891      -0.00209860      -0.00195005      -0.00071268
Ti       5.92313778       5.24084136      34.27784281       0.00109721      -0.00367160      -0.00167113
Ti       5.60757926       1.06825526      34.29116237       0.00099616       0.00054108       0.00144555
Ti       3.20889540       5.44854338      35.21601907      -0.00286684      -0.00001023      -0.00185974
Ti       2.71702856       1.38553722      35.23224258       0.00061026      -0.00000434       0.00107877
Ti       4.80317390       3.23005659      36.02951595       0.00062371       0.00047838       0.00439036
Ti       4.42566074      -0.90130302      36.04835118      -0.00153496      -0.00238367       0.00034338
Ti       6.39823209       0.92057062      37.16279606       0.00165458      -0.00070612      -0.00092932
Ti       1.62049328      -0.67326372      37.17857355      -0.00147532      -0.00156144      -0.00081940
Ti       6.96242700       3.63730132      37.82157585      -0.00011200      -0.00196649      -0.00043196
Ti       3.69057866       1.17062564      37.83860231      -0.00047294       0.00144560      -0.00096292
Ti       4.34621330       3.75411151      38.77745487      -0.00163932      -0.00126595      -0.00123489
Ti       5.10209433      -1.03282098      38.79372809       0.00066817      -0.00082283       0.00052359
Ti       5.74371696       1.46839539      40.05433007       0.00070251      -0.00077074      -0.00299563
Ti       2.41919117      -0.96363309      40.07078354      -0.00085421      -0.00138833      -0.00252719
Ti       3.44747600       5.87942708      40.41689060      -0.00135748      -0.00276324       0.00014498
Ti       2.96200625       1.80915745      40.43280336      -0.00115012      -0.00013305       0.00006865
Ti       4.67988222       3.66330368      41.58542514      -0.00061564       0.00038563      -0.00062590
Ti       4.85110733      -0.78637943      41.59952467       0.00045391       0.00057733       0.00094472
Ti       2.13122870       3.60858898      42.92834020      -0.00150121      -0.00373569      -0.00237403
Ti       1.64991323      -0.46495604      42.94344630      -0.00169004      -0.00283258      -0.00155797
Ti       7.09281080       3.83908429      43.05677382      -0.00002237      -0.00081909      -0.00005382
Ti       3.79548939       1.39216123      43.07312784      -0.00090977      -0.00218909      -0.00082300
Ti       4.60019251       3.73724323      44.37586767       0.00106324      -0.00064660       0.00034628
Ti       4.95298463      -0.81745279      44.39111032       0.00032523      -0.00118405       0.00077983
Ti       3.46912072       5.94228116      45.74066412       0.00035532       0.00035607       0.00156640
Ti       3.00274925       1.86241334      45.75654154      -0.00210539      -0.00301374       0.00073804
