100
Lattice="4.4265 -2.555641 0.0 3.767997 6.526363 -0.031456 0.0 0.0 45.781652" Properties=species:S:1:pos:R:3:forces:R:3 job_name=CSL13-Zn-Zn-64-d-6.97 GB_type=CSL13 element=Zn system=Zn-64-d-6.97 distance=6.97 energy=-768.28837933 stress_kbar_3x3="_JSON [[-37.37911301, -2.68346462, 2.02408288], [-2.68346467, -37.18170753, 0.86348382], [2.02408293, 0.86348382, -18.14954377]]" pbc="T T T"
Ti       2.48464532      -0.89389173       0.01628123      -0.00112441      -0.00519665       0.00121771
Ti       5.77755305       1.55452919       0.00040246       0.00134525      -0.00551405       0.00144466
Ti       4.99766993      -0.80296502       1.37956906      -0.00060560      -0.00513122       0.00037854
Ti       4.59740532       3.77886771       1.36338341      -0.00123203      -0.00604656      -0.00024252
Ti       7.10760351       3.86444895       2.62103275      -0.00046694      -0.00558159       0.00291315
Ti       3.81396391       1.41499138       2.63712970      -0.00203951      -0.00492632       0.00332504
Ti       1.66880969      -0.43974898       2.87393567      -0.00111890      -0.00507273       0.00094839
Ti       2.14777645       3.63566750       2.85837566       0.00004455      -0.00436832       0.00121300
Ti       4.73420548       3.65586282       4.16076931      -0.00315184      -0.00598565       0.00277138
Ti       4.81855751      -0.74394158       4.17633763      -0.00143911      -0.00641618       0.00320627
Ti       3.44707498       5.87284360       5.24810240      -0.00188541      -0.00469788       0.00197389
Ti       2.95482576       1.80607025       5.26358056      -0.00164114      -0.00473538       0.00184842
Ti       2.40969436      -0.95292637       5.75377050      -0.00215447      -0.00469433      -0.00113712
Ti       5.75680395       1.46528044       5.73795735      -0.00225693      -0.00524318      -0.00119585
Ti       4.27992363       3.76327278       6.95066501      -0.00055207      -0.00451933       0.00059128
Ti       5.13737558      -1.08282624       6.96645469      -0.00312333      -0.00277006       0.00039362
Ti       6.92625535       3.59444336       7.84927964      -0.00280433      -0.00206324       0.00017623
Ti       3.66810743       1.12496173       7.86507875      -0.00030817      -0.00298317       0.00022323
Ti       6.37574441       0.88674058       8.60817853      -0.00240154      -0.00194725      -0.00178774
Ti       1.59839019      -0.70574015       8.62386846      -0.00040030      -0.00331320      -0.00168405
Ti       4.78831462       3.17964062       9.68275007      -0.00107929      -0.00006300       0.00095963
Ti       4.37690408      -0.93384900       9.69864925      -0.00014087      -0.00099957       0.00051394
Ti       3.17398008       5.40824754      10.48025893       0.00070951      -0.00033727      -0.00166346
Ti       2.68776234       1.33746980      10.49566627      -0.00102641       0.00042744      -0.00158566
Ti       5.89404507       5.19492375      11.43537576      -0.00192152       0.00175873      -0.00191587
Ti       5.56931934       1.03200093      11.45068616       0.00135266       0.00024195      -0.00209171
Ti       0.58579018       0.91125164      12.37546113       0.00125904       0.00164490       0.00119391
Ti       3.85378621       3.37395548      12.35944752       0.00028414       0.00217892       0.00067008
Ti       3.30110780       0.64864878      13.18624227       0.00168136       0.00097561      -0.00133851
Ti       6.69615326       3.03932445      13.17059162      -0.00009648       0.00272948      -0.00137213
Ti       5.08675209       5.35661225      14.27858163       0.00197754       0.00233750       0.00067448
Ti       6.11009739       0.41484877      14.29491063      -0.00061952       0.00299794       0.00027238
Ti       4.53684726       2.63755471      14.97802250       0.00150225       0.00266574       0.00199593
Ti       4.02946651      -1.42248974      14.99325571       0.00010152       0.00332535       0.00135222
Ti       7.16106057       2.50619863      15.91631538       0.00040216       0.00291634      -0.00168995
Ti       2.60368339       0.78594194      15.93111759       0.00015357       0.00302895      -0.00052745
Ti       5.73559074       4.79423359      17.15520491       0.00004439       0.00532078      -0.00034139
Ti       5.29463267       0.69746901      17.17054538      -0.00063763       0.00253380      -0.00056615
Ti       3.60698236       2.94159678      17.58139189       0.00051837       0.00283785      -0.00308792
Ti       0.32802551       0.48474415      17.59741486       0.00181265       0.00449884      -0.00360241
Ti       2.87529372       0.50797488      18.72933218      -0.00119596       0.00610877      -0.00469073
Ti       6.77701800       2.60523122      18.71324012      -0.00032589       0.00375649      -0.00361022
Ti       4.91230060       5.20305350      20.02430221      -0.00196048       0.00558531       0.00116848
Ti       1.62618093       2.74963794      20.04263775      -0.00112297       0.00376682       0.00057775
Ti       4.37928740       2.41711209      20.22149400      -0.00104402       0.00644864      -0.00162977
Ti       3.90619389      -1.66047651      20.23614773       0.00016023       0.00555379      -0.00105937
Ti       6.88026479       2.51100458      21.50603655       0.00059668       0.00665217       0.00596790
Ti       2.72954976       0.55416810      21.52065338      -0.00180123       0.00232717       0.00021507
Ti       3.56510528       2.86910468      22.90683547      -0.00204181       0.01081370      -0.00063811
Ti       0.26182328       0.42717813      22.92289282      -0.00514936       0.00378470      -0.00151014
Ti       5.70266727       4.72941542      22.87033906       0.00004149       0.00181275       0.00128310
Ti       5.23254566       0.65197693      22.89390991       0.00214378       0.00379049       0.00267408
Ti       2.73342810       0.54727408      24.29131010      -0.00334409       0.00316347      -0.00258015
Ti       6.85610033       2.52098931      24.28406827       0.00247551       0.00568457      -0.00388920
Ti       3.90625877      -1.67342404      25.61022647       0.00426468       0.00209008      -0.00541876
Ti       4.35857417       2.42798352      25.60082274       0.00087361       0.00436814      -0.00104657
Ti       1.60632933       2.77360005      25.73885439      -0.00095165       0.00402865       0.00199176
Ti       4.88836730       5.19698931      25.74338130      -0.00150041       0.00136632      -0.00173554
Ti       2.82910678       0.49470125      27.05742581       0.00574187       0.01042075       0.00975741
Ti       6.77064260       2.62879033      27.06316874      -0.00195808       0.00134289      -0.00125947
Ti       0.33958460       0.58195395      28.24065553       0.00787877       0.00934872      -0.00429457
Ti       3.47925558       2.91450680      28.18003853       0.00250973      -0.00663865      -0.00029891
Ti       5.23871687       0.81032045      28.57896683      -0.00352540       0.00481778       0.00001369
Ti       5.63970298       4.78432465      28.65175148       0.00034668       0.00740006       0.00169622
Zn       7.26165676       2.49973163      29.78407292       0.00186916       0.00020567      -0.00029075
Ti       2.66812118       0.80988179      29.84329569       0.00480318       0.01128576      -0.00768557
Ti       4.58246874       2.82408383      30.70277575      -0.00105568      -0.00295881      -0.00621747
Ti       3.97205108      -1.41719642      30.78962064       0.00947938       0.00927025      -0.00035577
Ti       1.73816577       2.97587323      31.44072332      -0.00012937       0.00095943       0.00155685
Ti       5.07902692       5.54027593      31.49064721       0.00651588       0.00297258       0.00636157
Ti       3.45948552       0.74092346      32.54831392       0.00114548       0.00208643       0.00110160
Ti       6.77632405       3.05725188      32.49322681      -0.00117598       0.00772825       0.00056867
Ti       3.92029969       3.41708368      33.37423194       0.00310701       0.00103909       0.00085130
Ti       0.61624160       1.03562393      33.34385295      -0.00113339       0.00326153       0.00268714
Ti       5.98720113       5.23679299      34.26883265       0.00314603       0.00498192       0.00578789
Ti       5.67519196       1.12583962      34.33192152      -0.00132713      -0.00323465       0.00070062
Ti       3.29222955       5.53649514      35.15783843      -0.00018505       0.00292792      -0.00081290
Ti       2.75626450       1.38412336      35.21400198      -0.00094321      -0.00028666      -0.00201027
Ti       4.80787791       3.29543506      36.03986919      -0.00136333      -0.00210439      -0.00281559
Ti       4.47050378      -0.85601596      36.03951180       0.00347732      -0.00223221      -0.00258059
Ti       2.04609061       3.48575938      37.17562010      -0.00348718      -0.00315914      -0.00366701
Ti       1.68059143      -0.62648180      37.17732358      -0.00266304      -0.00328603      -0.00157934
Ti       7.01084675       3.65292910      37.78251266      -0.00050055       0.00012109      -0.00003928
Ti       3.75576350       1.23452284      37.80570560      -0.00437855      -0.00830883      -0.00278305
Ti       4.41241745       3.77880108      38.78502985      -0.00019722      -0.00305352      -0.00061399
Ti       5.11830857      -0.99184473      38.79106410      -0.00043165      -0.00669535      -0.00063671
Ti       5.78395626       1.49885629      40.06678415       0.00080430      -0.00588189      -0.00166050
Ti       2.46574802      -0.94173591      40.07181268      -0.00076019      -0.00487854      -0.00134929
Ti       3.48609889       5.91541842      40.39325769      -0.00063996      -0.00406404      -0.00049595
Ti       3.00190032       1.83385909      40.40344021      -0.00166652      -0.00631279       0.00106867
Ti       4.70047794       3.69455703      41.58497811       0.00281468      -0.00285032       0.00213892
Ti       4.89558817      -0.76420371      41.59614273      -0.00280462      -0.00651522      -0.00212512
Ti       2.15907319       3.63327996      42.92823581       0.00139579      -0.00242074       0.00091497
Ti       1.68110867      -0.43796352      42.94312666       0.00213054      -0.00738002       0.00046671
Ti       7.12355136       3.86371944      43.03854352      -0.00001804      -0.00541901       0.00122006
Ti       3.82376853       1.41776482      43.05725418       0.00072034      -0.00351254       0.00290586
Ti       4.63004679       3.76277113      44.36743548       0.00010074      -0.00418875       0.00276573
Ti       4.97523637      -0.79015569      44.38379636       0.00144160      -0.00584643       0.00396215
Ti       3.49036211       5.97055058      45.72730764       0.00072234      -0.00581305       0.00301862
Ti       3.02609127       1.88880337      45.74246809       0.00111401      -0.00404460       0.00353043
