100
Lattice="4.4265 -2.555641 0.0 3.767997 6.526363 -0.031456 0.0 0.0 45.781652" Properties=species:S:1:pos:R:3:forces:R:3 job_name=CSL13-Zr-Zr-51-d-0.00 GB_type=CSL13 element=Zr system=Zr-51-d-0.00 distance=0.0 energy=-775.52976987 stress_kbar_3x3="_JSON [[-29.98853151, -2.10687564, 0.58241386], [-2.10687564, -33.80554743, 1.1420266], [0.58241386, 1.14202661, -13.29298673]]" pbc="T T T"
Ti       2.47652403      -0.89744816       0.02051610      -0.00420802      -0.00110282       0.00282916
Ti       5.77018456       1.55185934       0.00481080       0.00168052      -0.00396265       0.00263348
Ti       4.98841573      -0.80611491       1.38139130      -0.00353121      -0.00292815       0.00610338
Ti       4.59337490       3.77288032       1.36549013      -0.00134755      -0.00409962       0.00649950
Ti       7.10256391       3.85960321       2.62415465      -0.00609968      -0.00618212       0.00833375
Ti       3.80886643       1.41038948       2.63949074      -0.00379329      -0.00695031       0.01206852
Ti       1.66439622      -0.44246723       2.86454258      -0.00336733      -0.00341695       0.00720220
Ti       2.14371652       3.63179517       2.84918448      -0.00260410      -0.00389565       0.00617629
Ti       4.72469914       3.65626146       4.14959135      -0.00654671      -0.00413656       0.01130337
Ti       4.82096508      -0.75038919       4.16530410      -0.00119197      -0.00791496       0.01040907
Ti       3.44579036       5.87278774       5.24382673      -0.00222595      -0.00371275       0.00536871
Ti       2.95295645       1.80650799       5.25927054      -0.00303869      -0.00298850       0.00755853
Ti       2.41001716      -0.95420350       5.72862194      -0.00046335      -0.00507347       0.00599578
Ti       5.75213697       1.46653483       5.71325141      -0.00222416      -0.00373069       0.00417996
Ti       4.28913882       3.76057136       6.93009135      -0.00437961      -0.00287438       0.00442802
Ti       5.12815477      -1.07425198       6.94622373      -0.00046442      -0.00507232       0.00098657
Ti       6.92640479       3.60434336       7.83417320      -0.00156343      -0.00369426      -0.00167412
Ti       3.67304013       1.13128565       7.85101927      -0.00353878       0.00146789      -0.00211851
Ti       6.37966102       0.89009455       8.57122101      -0.00241044       0.00259009       0.00122125
Ti       1.59517183      -0.69967264       8.58668946       0.00218385       0.00049200       0.00154864
Ti       4.78442436       3.19165103       9.65855466      -0.00201868       0.00207256       0.00233827
Ti       4.38536934      -0.92967324       9.67269795       0.00119966       0.00502900       0.00337602
Ti       3.18138953       5.41741434      10.45085409       0.00119266       0.00521890       0.00688622
Ti       2.68628136       1.35277239      10.46782728       0.00424063       0.00398384       0.00653531
Ti       5.89473581       5.20900645      11.38605584       0.00603513       0.00606692       0.00451038
Ti       5.57388955       1.04246667      11.39967255       0.00217642       0.00574412       0.01056446
Ti       0.58767794       0.92854488      12.34807729       0.00644123      -0.00257959       0.01115711
Ti       3.86298806       3.39019778      12.33400066       0.00018277       0.00329293       0.00441361
Ti       3.31467360       0.65742138      13.14563714      -0.00097637       0.00039383       0.00068824
Ti       6.68774661       3.06237380      13.12678468       0.00159592       0.00244785       0.00687064
Ti       5.09692152       5.36314107      14.21887596       0.00147594       0.00347085       0.00868366
Ti       6.11025396       0.43138763      14.22824350       0.00533749       0.00461688       0.00685426
Ti       4.54458105       2.65168434      14.95349838       0.00444769      -0.00133139      -0.00004699
Ti       4.03904543      -1.39718443      14.96649620      -0.00168267       0.00489044       0.00182458
Ti       7.18768472       2.50559131      15.85648939       0.00293505       0.00494987      -0.00096348
Ti       2.58009778       0.80559618      15.87557448       0.00751512       0.00013363       0.00565315
Ti       5.73719367       4.79685166      17.07692219       0.00498441       0.00594459       0.00834525
Ti       5.30727599       0.69256751      17.08190600       0.00757119       0.00022320      -0.00301603
Ti       3.61828201       2.95423080      17.55327744       0.00078107       0.00620120       0.00509707
Ti       0.33682510       0.48154806      17.55987876       0.00557236       0.00562499       0.00047995
Ti       2.90169515       0.47968349      18.66518373       0.00093018       0.00424016       0.00470662
Ti       6.77045745       2.62413671      18.64918653      -0.00175030      -0.00672857      -0.00369802
Ti       4.93134456       5.18306972      19.97115121      -0.00053727       0.01105589      -0.00384659
Ti       1.64390635       2.74671332      19.89508517      -0.00621849      -0.00001279       0.00919883
Ti       4.37853799       2.40945807      20.17332359      -0.00584851       0.00737425       0.00748170
Ti       3.92422224      -1.66030467      20.20104825      -0.00650054      -0.00384962      -0.00649307
Ti       6.91306440       2.49800679      21.42435162      -0.00000387       0.00636545      -0.00490851
Ti       2.68771384       0.54387486      21.46681741      -0.00013696      -0.00369901       0.00155625
Ti       3.63707228       2.90657282      22.86678559       0.01840294       0.00353454       0.00116199
Ti       0.27045064       0.28767656      22.88489734       0.00784910      -0.00062531       0.00159811
Ti       5.77781217       4.69863212      22.86917123       0.00192971      -0.00967011      -0.00025689
Zr       5.25293275       0.57363026      22.88351304       0.00885582       0.00355749      -0.00318331
Ti       2.68342316       0.55360427      24.30350568      -0.00138126      -0.00542229       0.00044842
Ti       6.92148243       2.49939016      24.31350902       0.00207937       0.00785408       0.00632952
Ti       3.92731605      -1.64776181      25.56058627      -0.00650041      -0.00421340       0.00714318
Ti       4.38264356       2.42382390      25.55708318      -0.00554061       0.00741255      -0.00763758
Ti       1.64459792       2.76016181      25.87445798      -0.00430997      -0.00244558      -0.00802240
Ti       4.93935230       5.19527324      25.76301294      -0.00012116       0.01267454       0.00293473
Ti       2.92806628       0.49101749      27.10904490       0.00122389       0.00332370      -0.00648984
Ti       6.76029237       2.65381416      27.09289165      -0.00076198      -0.00613057       0.00129859
Ti       0.35523709       0.51475546      28.18866747       0.00776124       0.00608890      -0.00413657
Ti       3.63666691       2.99255817      28.16439068       0.00026036       0.00464026      -0.00786683
Ti       5.33427727       0.71902078      28.69126513       0.00616937       0.00064082      -0.00035826
Ti       5.74481909       4.83578518      28.66205524       0.00691848       0.00807263      -0.01172431
Ti       7.23494488       2.53897769      29.87941294       0.00481102       0.00717426      -0.00255045
Ti       2.57696912       0.86581677      29.89147932       0.00936029       0.00093683      -0.00812009
Ti       4.57658043       2.71363130      30.75822351       0.00314447       0.00000723      -0.00105023
Ti       4.07447105      -1.33230623      30.77461685      -0.00041262       0.00405454      -0.00107376
Ti       6.13229626       0.49631272      31.54242126       0.00504858       0.00351673      -0.00868783
Ti       5.13828186       5.41370872      31.51808161       0.00096406       0.00424896      -0.00975491
Ti       3.36763073       0.71423709      32.60603559      -0.00204600       0.00017613      -0.00206646
Ti       6.70611431       3.14041230      32.59384555       0.00233385       0.00210076      -0.00801948
Ti       3.91421389       3.46088481      33.38220782       0.00036515       0.00250607      -0.00262370
Ti       0.62054346       1.00889084      33.39841422       0.00310849      -0.00376621      -0.00966573
Ti       2.16509290      -1.24192837      34.39310332       0.00588237       0.00322348      -0.00167187
Ti       5.61540256       1.11426883      34.37901552       0.00018832       0.00187396      -0.00491141
Ti       3.23263585       5.49419043      35.24574910       0.00127130       0.00398570      -0.00496347
Ti       2.72561185       1.43808578      35.25912330      -0.00008325       0.00243128      -0.00481008
Ti       4.79587775       3.28284389      36.06799360      -0.00480541       0.00133469      -0.00112400
Ti       4.45748422      -0.87490758      36.08510804       0.00057750       0.00486870      -0.00192499
Ti       6.42032844       0.94596285      37.22026833      -0.00222825       0.00161689       0.00137586
Ti       1.62185464      -0.63596623      37.23761386       0.00166299       0.00071293       0.00054168
Ti       6.97468601       3.67763054      37.83770785      -0.00278147      -0.00338195       0.00015887
Ti       3.71148679       1.21000107      37.85123480      -0.00282167       0.00168507       0.00139653
Ti       4.37465865       3.77311589      38.81601349      -0.00250355      -0.00375661      -0.00610640
Ti       5.09559339      -0.99293332      38.83160361      -0.00226961      -0.00349140      -0.00516635
Ti       5.75251821       1.49721760      40.09237024      -0.00369023      -0.00401326      -0.00692336
Ti       2.43630432      -0.93880784      40.10901668      -0.00184326      -0.00610955      -0.00965816
Ti       3.45949940       5.90703773      40.42733451      -0.00304226      -0.00737084      -0.00978099
Ti       2.97569453       1.83517610      40.44296913      -0.00538269      -0.00458042      -0.01188218
Ti       4.68659696       3.69169007      41.60897763      -0.00621538      -0.00234759      -0.01158086
Ti       4.87088368      -0.76562458      41.62484995       0.00033398      -0.00615328      -0.00981856
Ti       2.14488328       3.63365172      42.94560238      -0.00381522      -0.00200491      -0.00369960
Ti       1.66554793      -0.44047253      42.96170474      -0.00174214      -0.00381769      -0.00453253
Ti       7.10677552       3.86150260      43.06607201      -0.00332686      -0.00764846      -0.00567507
Ti       3.80842642       1.41504137      43.08197549      -0.00651131      -0.00565716      -0.00900862
Ti       4.61505282       3.76048871      44.38326752      -0.00099017      -0.00322927      -0.00191658
Ti       4.96685709      -0.79352690      44.39891268      -0.00345701      -0.00208447      -0.00188191
Ti       3.48223663       5.96656194      45.74072023      -0.00665119      -0.01027778       0.00023843
Ti       3.01718827       1.88400521      45.75634462      -0.00507466      -0.01000979       0.00039724
