100
Lattice="4.4265 -2.555641 0.0 3.767997 6.526363 -0.031456 0.0 0.0 45.781652" Properties=species:S:1:pos:R:3:forces:R:3 job_name=CSL13-Al-Al-55-d-2.65 GB_type=CSL13 element=Al system=Al-55-d-2.65 distance=2.65 energy=-771.59331545 stress_kbar_3x3="_JSON [[-36.1286346, -2.2393574, 1.69063526], [-2.2393574, -38.09845987, 1.38135312], [1.69063527, 1.38135313, -16.86316692]]" pbc="T T T"
Ti       2.43396678      -0.98041081       0.07454573       0.00007667      -0.00414657       0.00476060
Ti       5.73107663       1.46566079       0.05767283      -0.00195202      -0.00273437       0.00535953
Ti       4.96982415      -0.89857860       1.39810944       0.00158352      -0.00321206      -0.00123541
Ti       4.52948078       3.70561591       1.38176503      -0.00286041      -0.00040074      -0.00145942
Ti       7.05754732       3.77939999       2.60059719      -0.00207237      -0.00276600      -0.00101987
Ti       3.76461423       1.33045335       2.61752179      -0.00048775      -0.00420400      -0.00181389
Ti       1.62977726      -0.52305550       2.91467035      -0.00154064      -0.00377165       0.00256336
Ti       2.09514419       3.56118935       2.90060789      -0.00222703      -0.00361664       0.00196611
Ti       4.71360671       3.56527880       4.18233478       0.00120030      -0.00824490       0.00081675
Ti       4.74577651      -0.80468884       4.19612593      -0.00638174      -0.00424052       0.00214700
Ti       3.39299870       5.78762968       5.22442070      -0.00253607      -0.01021741      -0.00575615
Ti       2.89985097       1.71942762       5.23895413      -0.00480342      -0.00840969      -0.00411457
Ti       2.34984253      -1.02066382       5.78954090      -0.00468893      -0.00838468       0.00138952
Ti       5.72061834       1.38297902       5.77273303      -0.00381872      -0.00922625       0.00250028
Ti       4.20024569       3.70005553       6.95988491      -0.00652375      -0.00875908      -0.00007310
Ti       5.10926775      -1.17668440       6.97543913       0.00042885      -0.01100251      -0.00000868
Ti       6.86647642       3.50274370       7.82607282      -0.00431338      -0.01081826      -0.00485612
Ti       3.60598028       1.03686007       7.84246569      -0.00409904      -0.01207131      -0.00465003
Ti       6.31308805       0.81141929       8.63678465      -0.00398431      -0.01029396       0.00139738
Ti       1.55119652      -0.78946448       8.65093017      -0.00382114      -0.01022654       0.00280177
Ti       4.74745770       3.08535866       9.67737697      -0.00296824      -0.00955647      -0.00165607
Ti       4.30267249      -1.00811650       9.69179952      -0.00570999      -0.01023720      -0.00013236
Ti       3.10448630       5.32365910      10.46793214      -0.00458906      -0.00850200      -0.00327500
Ti       2.63685617       1.24366097      10.48300848      -0.00326483      -0.01053877      -0.00238009
Ti       5.83983306       5.10511741      11.46968879      -0.00522181      -0.00841690       0.00166935
Ti       5.50755462       0.94601291      11.48697627      -0.00480556      -0.00746824       0.00076710
Ti       0.52741119       0.81011478      12.34677524      -0.00362320      -0.00701747      -0.00179322
Ti       3.78676514       3.28166448      12.33224952      -0.00445264      -0.00824797      -0.00344117
Ti       3.21229798       0.57619688      13.18525376      -0.00428517      -0.00525317      -0.00099667
Ti       6.66720207       2.93302142      13.17131248      -0.00159790      -0.00552559      -0.00292305
Ti       5.02191909       5.27955798      14.32981420      -0.00315270      -0.00127335       0.00019419
Ti       6.07007134       0.32348983      14.34929014      -0.00468820      -0.00245076       0.00180072
Ti       4.47014874       2.53253766      14.92885262      -0.00352264      -0.00009715      -0.00482589
Ti       3.96930510      -1.52784160      14.94218358      -0.00509426      -0.00220248      -0.00515717
Ti       7.05599699       2.46098411      15.93457442      -0.00760897       0.00256209      -0.00241864
Ti       2.61339378       0.67627753      15.94894994       0.00175056      -0.00244597      -0.00477756
Ti       5.71214748       4.71920754      17.23553520       0.00126153       0.00131656      -0.00122840
Ti       5.22869672       0.64625780      17.25671762      -0.00148445       0.00216783       0.00099272
Ti       3.54950247       2.85910091      17.52303771      -0.00008109       0.00694125      -0.00508596
Ti       0.28123028       0.40588788      17.54043149      -0.00014427       0.00480674      -0.00440858
Ti       2.77661335       0.46606397      18.75923447       0.00185910       0.00086487      -0.00090500
Ti       6.79090608       2.51110696      18.73964880       0.00278928       0.00456784      -0.00099342
Ti       4.85692822       5.14326841      20.13585124       0.00814373       0.00920638       0.00077073
Ti       1.61194911       2.68502063      20.15612690      -0.00163935       0.00857567      -0.00490697
Ti       4.35371784       2.32711092      20.14972014       0.00676842       0.00472340      -0.01060373
Ti       3.86431801      -1.72116436      20.15571730       0.00278877       0.00831693      -0.00546912
Ti       6.76128263       2.50868440      21.55709328       0.00409706       0.00865571      -0.00196870
Ti       2.73608677       0.43434480      21.57277364       0.00220937      -0.00511800      -0.00572150
Ti       3.39809303       2.82330698      22.68903713       0.00256511       0.01524743       0.00084889
Ti       4.65644707      -2.12930905      22.77549643       0.00049171       0.00729678      -0.00372970
Ti       5.59955186       4.62754516      23.11936532       0.00157260       0.00420750      -0.00074014
Ti       5.16469365       0.69643053      23.00486242       0.00782610       0.00341247       0.00312476
Ti       2.54804171       0.60159819      24.37334930       0.00302853       0.00984719       0.00249314
Ti       7.08424257       2.38403799      24.38689377       0.00601674       0.00710172      -0.00605402
Ti       3.95320102      -1.57594122      25.33940230       0.00448362       0.01426285       0.00025080
Al       4.39493412       2.57149107      25.20273829       0.00210564       0.00906182      -0.00679070
Ti       5.94897283       0.29619589      25.94203685       0.00397668       0.00855952      -0.00196042
Ti       5.06131779       5.21625853      26.02000989       0.00516389       0.01172586      -0.00272303
Ti       3.29754585       0.55274004      27.09208121       0.00529411       0.01113701      -0.00065537
Ti       6.47621475       2.89938209      27.09734225       0.00563194       0.00658091       0.00273490
Ti       0.49761527       0.78763337      27.89064995       0.00529327       0.00800680      -0.00167763
Ti       3.74063407       3.33145482      27.80267098       0.00154070       0.01016404       0.00073559
Ti       5.56439351       0.89481580      28.88189894       0.00283852       0.00462229      -0.00255203
Ti       5.83659737       5.03528591      28.79083623       0.00333349       0.00954203       0.00432206
Ti       3.16009975       5.32265394      29.72236984       0.00517106       0.00384709       0.00329751
Ti       2.60809613       1.18286811      29.75799129       0.00430644       0.00347303      -0.00214565
Ti       4.68056487       3.06423747      30.50305671       0.00162930       0.00860896       0.00100999
Ti       4.33561862      -1.06281857      30.56311766       0.00301363       0.00101909      -0.00158378
Ti       1.92615716       3.27648939      31.67562124      -0.00008684       0.00006128       0.00033444
Ti       1.55758017      -0.85558861      31.67664805       0.00310189       0.00349027       0.00308724
Ti       3.64262139       1.00858809      32.34056500       0.00156414       0.00066856      -0.00175159
Ti       6.86227253       3.44542325      32.33715918      -0.00126755      -0.00000019       0.00238840
Ti       4.26364339       3.59800203      33.28109432       0.00019852      -0.00165186      -0.00008658
Ti       5.04203422      -1.21755622      33.29235133      -0.00072636       0.00187608       0.00396763
Ti       2.36372708      -1.12320354      34.52694848      -0.00211086      -0.00328886       0.00270403
Ti       5.69304999       1.30493546      34.52855664       0.00034363       0.00012530      -0.00065025
Ti       3.38863773       5.72125767      34.93520858      -0.00042912      -0.00272713       0.00266257
Ti       2.89676328       1.64286344      34.94587894      -0.00077239      -0.00135519      -0.00036502
Ti       4.65136459       3.50386037      36.06824083       0.00241070      -0.00229141       0.00177364
Ti       4.77462714      -0.91522612      36.08500408      -0.00202088       0.00024526       0.00178594
Ti       2.08275779       3.47753778      37.37050923      -0.00168833       0.00191718       0.00155626
Ti       1.61142708      -0.59674362      37.38553733      -0.00201069       0.00074914       0.00208217
Ti       7.04561070       3.70180681      37.57948581      -0.00054103       0.00100338       0.00333755
Ti       3.74850595       1.25881583      37.59665885       0.00239407      -0.00258304       0.00237054
Ti       4.53110156       3.63581410      38.85143583       0.00140846       0.00066054       0.00734400
Ti       4.93894937      -0.95411729      38.86855924      -0.00079557       0.00172395       0.00616611
Ti       5.72267489       1.42167802      40.19761712      -0.00162639      -0.00318329       0.00376670
Ti       2.42072828      -1.02317344      40.21416995       0.00079151      -0.00392914       0.00306660
Ti       3.42482539       5.83670750      40.27760124       0.00467587       0.00453647       0.00380234
Ti       2.96775221       1.75090647      40.29220411       0.00084360       0.00498069       0.00231078
Ti       4.58844980       3.63333379      41.62117740       0.00017768       0.00003715      -0.00119075
Ti       4.89907664      -0.89551327      41.63686237       0.00053980       0.00096664      -0.00230562
Ti       2.09642579       3.54386514      43.01728898       0.00392439       0.00505199       0.00563657
Ti       1.63465163      -0.54085740      43.03243321       0.00263128       0.00452778       0.00422704
Ti       7.07481909       3.75947896      42.98944563      -0.00082660      -0.00336242       0.00263690
Ti       3.75873316       1.32273359      43.00655983      -0.00176905      -0.00113419       0.00177093
Ti       4.60060941       3.65308483      44.38613493       0.00197047      -0.00170730       0.00767228
Ti       4.89795846      -0.87068538      44.40148749      -0.00152681       0.00088198       0.00935714
Ti       3.43806324       5.87800536      45.70224705       0.00395956       0.00167260       0.00062524
Ti       2.97452217       1.79491505      45.71701946       0.00106768       0.00270674      -0.00012995
