100
Lattice="4.4265 -2.555641 0.0 3.767997 6.526363 -0.031456 0.0 0.0 45.781652" Properties=species:S:1:pos:R:3 job_name=CSL13-Al-Al-62-d-5.77 GB_type=CSL13 element=Al system=Al-62-d-5.77 distance=5.77 energy=-771.49781108 pbc="T T T"
Ti       2.45076944      -0.95091708       0.05828644
Ti       5.74597810       1.49842856       0.04080922
Ti       4.98288481      -0.86346745       1.38985259
Ti       4.55141730       3.73840233       1.37077999
Ti       7.07505845       3.81707574       2.60192880
Ti       3.78467846       1.36477751       2.61687387
Ti       1.64553917      -0.49093799       2.90407849
Ti       2.11391701       3.59086228       2.89107336
Ti       4.73138719       3.59698928       4.17654705
Ti       4.76596041      -0.77509989       4.19303281
Ti       3.41357432       5.81872491       5.22344415
Ti       2.91868334       1.75114440       5.23809057
Ti       2.36833711      -0.99455953       5.78116870
Ti       5.73817762       1.41088619       5.76688723
Ti       4.21997181       3.72772683       6.95501573
Ti       5.12757961      -1.14661767       6.97187424
Ti       6.88569778       3.53058777       7.82120685
Ti       3.62823096       1.06689521       7.84168793
Ti       6.33225097       0.84030753       8.63238906
Ti       1.57049831      -0.76022971       8.64624408
Ti       4.76217995       3.12600938       9.67734198
Ti       4.32164979      -0.97621807       9.69329683
Ti       3.12595914       5.36398990      10.47044759
Ti       2.65450375       1.28019951      10.48713202
Ti       5.85001085       5.14824777      11.47044153
Ti       5.52445511       0.98989475      11.47951662
Ti       0.54217738       0.86362354      12.35952998
Ti       3.79592553       3.32307790      12.33823756
Ti       3.23341260       0.62072890      13.18756883
Ti       6.67476707       2.98585741      13.17068838
Ti       5.02512380       5.33466831      14.32307352
Ti       6.07015731       0.38134022      14.33854371
Ti       4.47447500       2.59847847      14.94081615
Ti       3.96936002      -1.47035023      14.95584164
Ti       7.06616065       2.51537427      15.93572527
Ti       2.59825192       0.73846919      15.94407956
Ti       5.70113638       4.78437431      17.22469133
Ti       5.23351289       0.69743640      17.23159325
Ti       3.55132375       2.92145235      17.53636249
Ti       0.27308554       0.46519762      17.55175111
Ti       2.78118529       0.52452661      18.75859435
Ti       6.76874682       2.58344682      18.73872394
Ti       4.85510080       5.22010655      20.11770920
Ti       1.59030707       2.74548890      20.13205565
Ti       4.33280754       2.40713976      20.17136264
Ti       3.84228329      -1.66103292      20.19037584
Ti       6.77897931       2.52947502      21.53215139
Ti       2.71350725       0.51151128      21.55942880
Ti       3.49660628       2.85651357      22.78981719
Ti       0.23277051       0.40996428      22.82637329
Ti       5.65788522       4.72689150      22.98018860
Ti       5.16428407       0.64926889      23.03646595
Ti       2.57573743       0.59979482      24.41091760
Ti       6.92023749       2.41952153      24.34140818
Ti       3.83835501      -1.68068886      25.41476224
Ti       4.38536973       2.51830598      25.33548925
Ti       5.88708873       0.27330001      25.91060170
Ti       4.89078085       5.19824584      25.89967625
Ti       3.25869788       0.29775495      27.16379393
Ti       6.63626549       2.80064706      27.14208917
Ti       0.61827184       0.73174041      27.89931913
Ti       3.72306570       2.98633260      27.94532793
Al       5.46989016       0.78879272      28.82756078
Ti       5.71273478       4.95583535      28.74036905
Ti       3.10790415       5.03982624      29.79968585
Ti       2.73356875       1.08381719      29.81828896
Ti       4.82690637       2.95682511      30.54619092
Ti       4.23817227      -1.24467504      30.54266076
Ti       6.23078440       0.63557499      31.60356971
Ti       5.28680812       5.59452022      31.58778310
Ti       3.56931382       0.82853359      32.46229543
Ti       6.86595736       3.32625847      32.40403193
Ti       4.15580685       3.54635598      33.24268472
Ti       5.09967515      -1.34132815      33.28300617
Ti       2.30021214      -1.16345742      34.47042324
Ti       5.70064267       1.25220814      34.42875557
Ti       3.37082186       5.64158373      35.02079358
Ti       2.86356080       1.59189560      35.03651406
Ti       4.72080757       3.44480971      36.02706978
Ti       4.69667129      -0.88890013      36.03660030
Ti       2.07109486       3.49013268      37.30469363
Ti       1.60621538      -0.59585756      37.31615132
Ti       7.04043845       3.71440299      37.62324719
Ti       3.75172668       1.25641722      37.64518947
Ti       4.50253565       3.66790708      38.82756400
Ti       4.97617980      -0.95475185      38.84303388
Ti       5.72918359       1.44541458      40.15097311
Ti       2.43444260      -1.00600663      40.17238524
Ti       3.44054881       5.85682166      40.29669620
Ti       2.97158388       1.77970823      40.31608028
Ti       4.61202193       3.65558432      41.61335433
Ti       4.89853762      -0.86074531      41.62579582
Ti       2.10997481       3.57080812      42.98873969
Ti       1.64695016      -0.51268341      43.00166122
Ti       7.08810854       3.79134680      42.99791796
Ti       3.77755556       1.35721935      43.01513411
Ti       4.60901966       3.68967283      44.37546876
Ti       4.92042610      -0.84052892      44.39222317
Ti       3.45646557       5.91019503      45.69761963
Ti       2.99232227       1.83080102      45.71376984
