100
Lattice="4.4265 -2.555641 0.0 3.767997 6.526363 -0.031456 0.0 0.0 45.781652" Properties=species:S:1:pos:R:3:forces:R:3 job_name=CSL13-Zn-Zn-58-d-4.19 GB_type=CSL13 element=Zn system=Zn-58-d-4.19 distance=4.19 energy=-768.27169024 stress_kbar_3x3="_JSON [[-37.68044007, -3.08714411, 2.57494963], [-3.08714412, -37.5780141, 1.73659659], [2.57494975, 1.73659659, -19.52328465]]" pbc="T T T"
Ti       2.44775368      -0.95181560       0.02348574       0.00215489       0.00093156       0.00300446
Ti       5.74620886       1.49415163       0.00731321       0.00133209       0.00010142       0.00266483
Ti       4.96520326      -0.86155112       1.37591660       0.00082326      -0.00093532       0.00537386
Ti       4.56405730       3.72213591       1.36014150      -0.00198447      -0.00152575       0.00477341
Ti       7.07679392       3.80807698       2.62086747      -0.00130069      -0.00104269       0.00059137
Ti       3.78144774       1.35976092       2.63768553       0.00097018      -0.00202079      -0.00018778
Ti       1.63930471      -0.49527200       2.87224670       0.00130182      -0.00025854       0.00343240
Ti       2.11490273       3.58186189       2.85710056      -0.00101365      -0.00136955       0.00260378
Ti       4.69928269       3.61049576       4.15842988       0.00137837      -0.00407531       0.00262410
Ti       4.79682961      -0.79589943       4.17323563      -0.00095903      -0.00262878       0.00125013
Ti       3.42150783       5.83173073       5.25621686      -0.00072217      -0.00092594      -0.00215404
Ti       2.93043683       1.76224151       5.27228002      -0.00091902       0.00024164      -0.00228185
Ti       2.38607860      -0.99478380       5.74768018      -0.00124002      -0.00118223       0.00337566
Ti       5.73145614       1.42370331       5.73102881      -0.00095411      -0.00103245       0.00363030
Ti       4.26855895       3.72714636       6.95308415      -0.00287685      -0.00168244       0.00144141
Ti       5.10689782      -1.10695208       6.96963209      -0.00040254      -0.00459844       0.00154012
Ti       6.91038776       3.56782028       7.85820148       0.00113328      -0.00294571       0.00060580
Ti       3.64893051       1.10371431       7.87570514      -0.00101380      -0.00029550       0.00053822
Ti       6.35691367       0.86486825       8.60747090      -0.00093073      -0.00189331       0.00215100
Ti       1.58496789      -0.72898458       8.62231762      -0.00404144      -0.00260101       0.00121055
Ti       4.77183656       3.16513442       9.68847740      -0.00303992      -0.00227740       0.00263586
Ti       4.36248023      -0.95182431       9.70459162      -0.00289474      -0.00013322       0.00307997
Ti       3.15927524       5.39456270      10.48898775      -0.00218266      -0.00037187      -0.00225794
Ti       2.67259142       1.32105355      10.50364397       0.00051281      -0.00141386       0.00095131
Ti       5.87624635       5.18492569      11.44828019       0.00227754      -0.00343453      -0.00049081
Ti       5.55608670       1.02046796      11.46136466      -0.00306995      -0.00156922       0.00090696
Ti       0.57131762       0.90360906      12.38183191      -0.00095367      -0.00003899      -0.00327250
Ti       3.83713670       3.36406572      12.36523715      -0.00059275      -0.00596087      -0.00365434
Ti       3.28178053       0.64331401      13.19709614      -0.00067474       0.00205489      -0.00273390
Ti       6.68683829       3.02859229      13.18054670      -0.00053673      -0.00156806      -0.00386499
Ti       5.07011932       5.35540574      14.30233947      -0.00383765       0.00038519       0.00049786
Ti       6.09648471       0.41212090      14.31826636       0.00037224      -0.00100591       0.00023857
Ti       4.51834902       2.63424055      14.97813134      -0.00302204      -0.00376816       0.00391093
Ti       4.01237561      -1.43093662      14.99296375      -0.00029482       0.00029827      -0.00330995
Ti       7.13220255       2.51821507      15.93396588      -0.00591346      -0.00485944      -0.00256659
Ti       2.60505015       0.77800106      15.94942532       0.00408874       0.00524870       0.00210481
Ti       5.72690169       4.80048757      17.19585224      -0.00040144       0.00187570       0.00091831
Ti       5.27473866       0.70893013      17.20453607      -0.00169403       0.00203125      -0.00230902
Ti       3.59108623       2.94568192      17.57769439      -0.00365714      -0.00687865      -0.00174832
Ti       0.31241693       0.48775179      17.59446949       0.00251127       0.00343819       0.00252973
Ti       2.84475785       0.52600569      18.75714009      -0.00123542       0.00758626      -0.00230242
Ti       6.77842293       2.60630515      18.73654113      -0.00182027      -0.00483070       0.00631346
Ti       4.89405587       5.21352132      20.07340521      -0.00617074      -0.00100917       0.00281975
Ti       1.61054753       2.75795635      20.08006920      -0.00046084       0.00057033       0.00263186
Ti       4.36123459       2.42331682      20.22091159      -0.00031801      -0.00272661      -0.00081876
Ti       3.88479152      -1.65717948      20.23697410       0.00443906       0.00153602      -0.00429327
Ti       6.84518146       2.51657062      21.52213746      -0.00276602       0.00086253      -0.00454925
Ti       2.72262241       0.55335663      21.55355378       0.00051595       0.00496908       0.00122631
Ti       3.55296365       2.85511998      22.89939412      -0.00007742      -0.00383060      -0.00353016
Ti       0.24909653       0.42162943      22.91668568       0.00194182      -0.00095700       0.00479248
Ti       5.69243101       4.74783799      22.94166849      -0.00241896       0.00141175       0.00115399
Ti       5.19395170       0.64202369      22.96602171      -0.00142742       0.00235898      -0.00136686
Ti       2.67248643       0.59285078      24.33838682       0.00246459       0.00497920      -0.00800069
Ti       6.85741617       2.47043402      24.28770279       0.00014568       0.00813633       0.01148327
Ti       3.76915424      -1.68730525      25.48868913       0.00559217      -0.01420454       0.00224422
Ti       4.39207212       2.50968411      25.53095606       0.00566272       0.00375079       0.00123623
Ti       5.94103953       0.18660818      25.87700337       0.00148790       0.00342226       0.00142104
Ti       4.85527659       5.29569353      25.77256198      -0.01655687       0.00304009      -0.00192094
Zn       3.09554293       0.43883071      27.06382651       0.00564419      -0.00576761      -0.01637918
Ti       6.75061318       2.69497131      27.08455894       0.00242665       0.00458088      -0.00674548
Ti       0.44764467       0.71709784      28.01105158       0.00166623       0.00343042      -0.00341897
Ti       3.57890742       3.01189330      28.06734336       0.00189658       0.00318182      -0.00219287
Ti       5.34677816       0.89477013      28.71794554       0.00118603       0.00316711       0.00059398
Ti       5.77811263       4.85257967      28.64666036       0.00226800      -0.00010343       0.00333103
Ti       3.02025916       5.14760635      29.81318995      -0.00150017       0.00176040      -0.00081166
Ti       2.65734655       0.91460125      29.80149239       0.00014847       0.00269830      -0.00088052
Ti       4.65284642       2.86937656      30.60427891      -0.00062594      -0.00019825       0.00117915
Ti       4.15004782      -1.28404292      30.67245191       0.00157634       0.00456256       0.00024525
Ti       6.19883670       0.55098283      31.48512513       0.00461721       0.00339919       0.00345340
Ti       5.26065466       5.50712338      31.52569265       0.00087832       0.00333596      -0.00013956
Ti       3.51230778       0.81140271      32.49537300      -0.00121731       0.00042971      -0.00221422
Ti       6.77957133       3.19295967      32.49616918      -0.00430338      -0.00099335       0.00200715
Ti       4.01217960       3.52770802      33.27899767       0.00405514       0.00040240      -0.00447216
Ti       0.66795796       1.11709725      33.31854765       0.00153117       0.00680069      -0.00410318
Ti       2.26429826      -1.20961987      34.37704225       0.00362692       0.00144658       0.00299066
Ti       5.71125849       1.18247741      34.35753865       0.00055137       0.00287596      -0.00382614
Ti       3.33390201       5.58157530      35.10975837       0.00066253       0.00243799      -0.00229292
Ti       2.80679021       1.48379207      35.13832873       0.00124588       0.00088525      -0.00488609
Ti       4.78644851       3.35610835      36.00472294      -0.00261557       0.00506520      -0.00111381
Ti       4.58082214      -0.86001525      36.02959268       0.00263023      -0.00461685      -0.00250936
Ti       2.05635905       3.48886420      37.22844520       0.00059464      -0.00013488      -0.00013875
Ti       1.65475039      -0.62244091      37.24413255      -0.00210382       0.00447236      -0.00300559
Ti       7.02737012       3.68293038      37.70660685       0.00628684       0.00170450       0.00255630
Ti       3.75605958       1.23839603      37.73395432       0.00182261      -0.00218805      -0.00292442
Ti       4.46110611       3.70949781      38.79523861      -0.00174361      -0.00150745      -0.00137023
Ti       5.04858060      -0.98399583      38.80904813      -0.00564706       0.00214801      -0.00287758
Ti       5.74515151       1.45766793      40.10052493       0.00227715      -0.00120456       0.00112526
Ti       2.44769635      -0.99301683      40.11439887       0.00247209      -0.00147241       0.00303543
Ti       3.45725427       5.86841736      40.33848323       0.00324366      -0.00139019      -0.00194046
Ti       2.98257373       1.78802791      40.35178597      -0.00090697       0.00280148       0.00054744
Ti       4.64488722       3.65371168      41.59651971       0.00026340       0.00009846       0.00487293
Ti       4.88976913      -0.83643661      41.60809180       0.00249845      -0.00109842       0.00274446
Ti       2.12182286       3.57745117      42.94751356       0.00205207      -0.00098578       0.00269318
Ti       1.64967067      -0.49945725      42.96345704       0.00024603      -0.00225637       0.00116555
Ti       7.09213749       3.80176483      43.01305450       0.00253014       0.00007973       0.00467280
Ti       3.78433749       1.35923261      43.03250627       0.00241780       0.00137143       0.00336440
Ti       4.60229000       3.69993478      44.36716014       0.00163551      -0.00435368      -0.00453104
Ti       4.93294990      -0.84860785      44.38215470      -0.00183775       0.00159875      -0.00234490
Ti       3.45283172       5.91246834      45.71706609       0.00010467      -0.00265785      -0.00042805
Ti       2.99416265       1.82669741      45.73319011       0.00071511      -0.00118391      -0.00132518
