100
Lattice="4.4265 -2.555641 0.0 3.767997 6.526363 -0.031456 0.0 0.0 45.781652" Properties=species:S:1:pos:R:3:forces:R:3 job_name=CSL13-Al-Al-48-d-0.01 GB_type=CSL13 element=Al system=Al-48-d-0.01 distance=0.01 energy=-771.6620716 stress_kbar_3x3="_JSON [[-35.98998647, -1.72487808, 0.04377454], [-1.72487807, -38.72529349, 1.49694605], [0.04377451, 1.49694604, -16.49192285]]" pbc="T T T"
Ti       2.33604820      -1.03053356       0.26513651       0.00106395      -0.00308357       0.00558744
Ti       5.69488514       1.38192523       0.25118183      -0.00197833      -0.00238889       0.00114484
Ti       5.07808440      -1.15154397       1.47822802       0.00035884      -0.00472033       0.00213216
Ti       4.22257984       3.69288256       1.46421468      -0.00345227      -0.00161381       0.00037136
Ti       6.87351380       3.52870041       2.35179497      -0.00475824      -0.00040009      -0.00158745
Ti       3.60800018       1.06015311       2.36599509       0.00033463      -0.00550059      -0.00344294
Ti       1.55247570      -0.76856505       3.13044462      -0.00092557      -0.00390726       0.00365903
Ti       6.31681817       0.83351256       3.11400714      -0.00263209      -0.00480195       0.00448576
Ti       4.74812932       3.12213352       4.18892785       0.00076807      -0.00299505      -0.00683073
Ti       4.32629954      -0.98264428       4.20275420      -0.00006863      -0.00434708      -0.00354932
Ti       3.12554545       5.35562613       4.97404760      -0.00129475      -0.00264516       0.00064361
Ti       2.64509011       1.28647798       4.99098755      -0.00047486      -0.00415637      -0.00268773
Ti       5.85367534       5.15030739       5.94831791      -0.00260592      -0.00101702      -0.00018506
Ti       5.53266913       0.98203929       5.96950472       0.00157963      -0.00397654      -0.00153650
Ti       3.81553843       3.33194308       6.84843197       0.00025527       0.00143599      -0.00047623
Ti       0.54945944       0.85935257       6.86060916       0.00042470      -0.00075225       0.00053794
Ti       6.67714912       2.98961053       7.66249318       0.00042584      -0.00210899       0.00393871
Ti       3.25315732       0.61883335       7.67756576      -0.00091813      -0.00436746       0.00438988
Ti       6.09382047       0.38023216       8.81913241       0.00126463      -0.00120200       0.00118664
Ti       5.06628399       5.32765344       8.80224993      -0.00140110      -0.00391308       0.00365438
Ti       4.50931584       2.59579200       9.44395003       0.00314046      -0.00142838      -0.00106893
Ti       4.01029118      -1.46077451       9.46289273      -0.00300925       0.00226069      -0.00279156
Ti       7.11715764       2.50292924      10.41590354      -0.00076789       0.00102024       0.00228964
Ti       2.62880004       0.74579112      10.43342365       0.00240816      -0.00478312       0.00211294
Ti       5.74830890       4.77934926      11.68901877       0.00127612      -0.00004402       0.00119022
Ti       5.29603837       0.69212393      11.71065463      -0.00131514       0.00451672       0.00183325
Ti       0.32788721       0.46958935      12.05283343       0.00270083       0.00148508       0.00092037
Ti       3.61329884       2.92558625      12.04034942       0.00254288       0.00396417      -0.00254528
Ti       2.86307147       0.52152498      13.23154432      -0.00562247       0.00397688      -0.00055939
Ti       6.82468020       2.58611375      13.22012568       0.00310264       0.00335996      -0.00121874
Ti       4.93905158       5.20931401      14.56492438      -0.00000997      -0.00015342      -0.00119508
Ti       1.66280556       2.75134203      14.58204488       0.00086452      -0.00226030      -0.00350607
Ti       4.41105158       2.41129078      14.67870309      -0.00307783       0.00249573      -0.00058443
Ti       3.93255519      -1.65415204      14.69470343       0.00056776      -0.00336819      -0.00134769
Ti       6.89226306       2.53455777      16.00308873       0.00011474       0.00233255       0.00264361
Ti       2.78743285       0.53969838      16.02097962       0.00465265       0.00020209       0.00377417
Ti       5.75020982       4.73119119      17.43689741       0.00607259       0.00504562       0.00276084
Ti       5.27199821       0.67107433      17.44602964       0.00071256       0.00607895      -0.00338850
Ti       3.59047036       2.87268013      17.34578385       0.00279103      -0.00012498       0.00373486
Ti       0.31237683       0.44032650      17.34908650      -0.00024549       0.00169143       0.00001746
Ti       2.73676749       0.57049900      18.82564647      -0.00792431      -0.00140416       0.00139182
Ti       7.00176919       2.50415437      18.79913344      -0.00249165       0.00396278       0.00044145
Ti       4.97772456       5.14655835      20.39830137       0.00424373       0.00129477       0.00407990
Ti       1.78926887       2.80630212      20.27865005      -0.00582822       0.00099027      -0.00041180
Ti       4.51559585       2.34364972      19.90713802       0.00538997      -0.00026004       0.00549349
Ti       4.01992679      -1.60064885      19.98582103       0.00047118      -0.00014097      -0.00071810
Ti       6.71419200       2.78642339      21.62691476      -0.00028924       0.00369484       0.00020069
Ti       3.06019622       0.49805585      21.61601708       0.00026895       0.00333586      -0.00107865
Al       3.82749042       3.10708137      22.43295030       0.00106885       0.00087420       0.00253807
Ti       0.45838461       0.65708576      22.56035088      -0.00073952      -0.00143993      -0.00461498
Ti       5.78623470       5.00416794      23.28860590       0.00116101       0.00099970      -0.00250065
Ti       5.50579103       0.76330197      23.20958836      -0.00078852      -0.00351013      -0.00140475
Ti       2.61953695       1.16336756      24.32614653      -0.00087514       0.00613315       0.00224326
Ti       3.08222116       5.07678470      24.32739585       0.00036858      -0.00411962       0.00174385
Ti       4.25886497      -1.15211017      25.12521885      -0.00490894      -0.00086506      -0.00260189
Ti       4.81303701       2.92446478      25.04335762      -0.00130765       0.00219981      -0.00019167
Ti       6.23076650       0.74130603      26.17089172       0.00426134       0.00189019       0.00607915
Ti       5.22734242       5.59096266      26.07156824       0.00089376       0.00165203       0.00395577
Ti       3.51368385       0.86817956      26.97156693       0.00222210      -0.00238131       0.00301367
Ti       6.83456025       3.44411336      26.92592695       0.00214823       0.00231810      -0.00359632
Ti       5.09613988      -1.29771826      27.81089285       0.00069462      -0.00062199       0.00143233
Ti       4.15921093       3.57229555      27.75858041      -0.00444250       0.00206314       0.00191671
Ti       5.62381844       1.29989440      28.98851241      -0.00045495      -0.00011745      -0.00063742
Ti       2.25817178      -1.08843817      28.99355953       0.00024698      -0.00259192      -0.00028782
Ti       3.31398586       5.66772891      29.52837889      -0.00090309      -0.00234971      -0.00024197
Ti       2.83509146       1.66770297      29.53838138      -0.00139945      -0.00474513      -0.00057477
Ti       4.65860582       3.49208358      30.56628361       0.00169833       0.00044017      -0.00184599
Ti       4.66482524      -0.87691443      30.56989400       0.00374882      -0.00265903      -0.00605807
Ti       6.44894469       0.94922155      31.85896212       0.00025695       0.00296204      -0.00180223
Ti       1.55666394      -0.57981149      31.85271545       0.00259308       0.00263387       0.00151017
Ti       3.69751255       1.26621127      32.15111893       0.00172271       0.00204977      -0.00112062
Ti       6.99477438       3.72833878      32.14002195      -0.00272742      -0.00296395      -0.00221631
Ti       4.46718624       3.66143155      33.35916774      -0.00400605       0.00085843      -0.00001377
Ti       4.91643385      -0.94392908      33.37342434      -0.00146598      -0.00067963      -0.00056580
Ti       2.38102294      -1.00948782      34.70636346      -0.00032897      -0.00269765      -0.00031535
Ti       5.67592645       1.43496184      34.69049775      -0.00343913      -0.00316930       0.00205845
Ti       3.38369401       5.84746578      34.81070449       0.00350919       0.00516381       0.00053548
Ti       2.92157334       1.76633358      34.82896239       0.00034206       0.00416771      -0.00107014
Ti       4.55447884       3.63676193      36.13443445       0.00225549       0.00119652      -0.00090257
Ti       4.84929781      -0.88720212      36.15041432      -0.00083585       0.00214338      -0.00244547
Ti       2.05603824       3.54158412      37.51471808       0.00029618       0.00209579      -0.00031263
Ti       1.59340743      -0.54144297      37.53124927       0.00254756       0.00167085      -0.00079926
Ti       7.03371349       3.75834529      37.51765216      -0.00103579      -0.00043463      -0.00197978
Ti       3.71944137       1.32104045      37.53217154      -0.00406679       0.00080677       0.00211708
Ti       4.55438562       3.64631039      38.89799240       0.00156613       0.00085122      -0.00032600
Ti       4.86322953      -0.88138643      38.91335655      -0.00102715      -0.00055684       0.00094065
Ti       5.69263683       1.45227268      40.33886886      -0.00000900      -0.00153599      -0.00227076
Ti       2.39418770      -0.99616323      40.35369503      -0.00039099       0.00052158      -0.00095790
Ti       3.39846644       5.86383958      40.22456471       0.00370785       0.00399331      -0.00097002
Ti       2.93668308       1.77962885      40.24168408       0.00154906       0.00462162      -0.00281885
Ti       4.50208191       3.68223841      41.66915399      -0.00076673       0.00050204      -0.00254147
Ti       4.92265719      -0.91169121      41.68502026      -0.00037697       0.00035637      -0.00359740
Ti       2.06338948       3.54030263      43.17063764       0.00091813      -0.00078124       0.00152699
Ti       1.59411271      -0.54001021      43.18570448      -0.00245804       0.00130459       0.00276810
Ti       7.02520967       3.76071417      42.91061722       0.00290855       0.00086908      -0.00322985
Ti       3.73030791       1.31276392      42.92558371       0.00113426       0.00140136      -0.00124308
Ti       4.66188464       3.56284221      44.45971559       0.00283080      -0.00131623       0.00206812
Ti       4.74169380      -0.83432298      44.47612813      -0.00418821       0.00301004       0.00273449
Ti       3.37463651       5.78511047      45.53836361      -0.00037408      -0.00033175      -0.00615411
Ti       2.88495991       1.71936939      45.55226460      -0.00003871      -0.00316174      -0.00087896
