100
Lattice="4.4265 -2.555641 0.0 3.767997 6.526363 -0.031456 0.0 0.0 45.781652" Properties=species:S:1:pos:R:3 job_name=CSL13-Zr-Zr-49-d-0.01 GB_type=CSL13 element=Zr system=Zr-49-d-0.01 distance=0.01 energy=-775.36689126 pbc="T T T"
Ti       2.47894214      -0.89651480       0.02212802
Ti       5.77044835       1.55366853       0.00636606
Ti       4.99282460      -0.80510887       1.38408307
Ti       4.59296601       3.77676135       1.36830928
Ti       7.10385344       3.86247295       2.61727184
Ti       3.81169388       1.41186116       2.63285828
Ti       1.66690980      -0.44119722       2.87166010
Ti       2.14442254       3.63384406       2.85554364
Ti       4.73836516       3.65148986       4.15712109
Ti       4.81161785      -0.74217261       4.17295920
Ti       3.44617293       5.86716338       5.22712695
Ti       2.95062103       1.80304658       5.24262968
Ti       2.40491779      -0.95287018       5.74348117
Ti       5.75930621       1.46154786       5.72741983
Ti       4.26988424       3.76434165       6.93452235
Ti       5.14640499      -1.09317035       6.94959102
Ti       6.92096881       3.58625605       7.81425192
Ti       3.66609517       1.11396250       7.82929919
Ti       6.37105708       0.88275039       8.58563403
Ti       1.59963088      -0.71411972       8.60293276
Ti       4.79318230       3.16674689       9.65200358
Ti       4.36692972      -0.93776585       9.66621463
Ti       3.16943431       5.39714288      10.43797210
Ti       2.68594379       1.32666390      10.45223648
Ti       5.89311796       5.18358322      11.40908400
Ti       5.56850086       1.02189232      11.42267411
Ti       0.58708211       0.89511236      12.32364978
Ti       3.84615619       3.36602476      12.31264651
Ti       3.29263266       0.64384850      13.13577014
Ti       6.69983732       3.02241522      13.12198710
Ti       5.08585098       5.35300977      14.24985963
Ti       6.11096110       0.40363560      14.26516668
Ti       4.53705166       2.62418721      14.91247519
Ti       4.02637500      -1.43855388      14.91831142
Ti       7.14583886       2.50954595      15.86045989
Ti       2.63584760       0.77059167      15.88112083
Ti       5.76312064       4.80224232      17.13371231
Ti       5.29617063       0.70418531      17.14531805
Ti       3.61717766       2.94882892      17.50544398
Ti       0.34091695       0.48226639      17.50324183
Ti       2.86524298       0.55234191      18.68787514
Ti       6.80567500       2.60490729      18.65544030
Ti       4.92724237       5.23668227      19.99608573
Ti       1.63883664       2.77197558      20.01710611
Ti       4.39635076       2.45516806      20.15156752
Ti       3.91061380      -1.64374136      20.09747173
Ti       6.88036640       2.53493991      21.43911663
Ti       2.82024695       0.57033273      21.47604982
Ti       3.57454166       2.90350659      22.86827298
Zr       0.30355179       0.49361600      22.88482209
Ti       5.70160453       4.70885777      22.86692713
Ti       5.29139888       0.76328404      22.88229621
Ti       2.81808148       0.57908504      24.28947567
Ti       6.88656735       2.53890998      24.29621880
Ti       3.91308993      -1.63033651      25.66775673
Ti       4.40215659       2.46816569      25.58186414
Ti       1.64337732       2.78505866      25.74781092
Ti       4.93016075       5.25213616      25.73663102
Ti       2.88394652       0.56618884      27.08310324
Ti       6.80101876       2.63225276      27.08574308
Ti       0.35700183       0.51289672      28.25114052
Ti       3.62935827       2.97952782      28.21553729
Ti       5.31741368       0.72887453      28.62254733
Ti       5.76816527       4.83651031      28.60207098
Ti       7.18948426       2.53533114      29.87702994
Ti       2.63484735       0.82220973      29.88887910
Ti       4.56801061       2.68293166      30.79927407
Ti       4.05758511      -1.38379702      30.82816751
Ti       6.12707432       0.46145850      31.50105712
Ti       5.12429485       5.39850077      31.48678896
Ti       3.34788798       0.69380430      32.61948675
Ti       6.71534817       3.09425630      32.60124701
Ti       3.89260866       3.43449160      33.40114851
Ti       0.62295750       0.97253531      33.42269055
Ti       5.92925082       5.25594148      34.33664328
Ti       5.61396632       1.09055120      34.35596597
Ti       3.22325221       5.46964556      35.26271603
Ti       2.72160092       1.40748776      35.28122889
Ti       4.80933799       3.25492707      36.07220049
Ti       4.43425170      -0.87925093      36.08930542
Ti       6.41288299       0.94133535      37.20594275
Ti       1.63109890      -0.64881857      37.21956661
Ti       6.97102040       3.66135363      37.85797253
Ti       3.70782665       1.19586610      37.87460921
Ti       4.35893889       3.78087028      38.80852330
Ti       5.11631528      -1.00837696      38.82468809
Ti       5.75955033       1.49424677      40.08126256
Ti       2.43403553      -0.93680101      40.09639702
Ti       3.46236393       5.90434852      40.44154188
Ti       2.97540354       1.83478599      40.45734149
Ti       4.69619207       3.68905566      41.60291503
Ti       4.86575200      -0.76010629      41.61849830
Ti       2.14701456       3.63430771      42.94145097
Ti       1.66650669      -0.43898972      42.95706051
Ti       7.10836980       3.86442472      43.06935976
Ti       3.81140119       1.41663358      43.08542140
Ti       4.61667461       3.76307238      44.38201776
Ti       4.96906080      -0.79177569      44.39782691
Ti       3.48542743       5.96779290      45.73981128
Ti       3.01728656       1.88677664      45.75560371
