100
Lattice="4.4265 -2.555641 0.0 3.767997 6.526363 -0.031456 0.0 0.0 45.781652" Properties=species:S:1:pos:R:3:forces:R:3 job_name=CSL13-Al-Al-58-d-4.19 GB_type=CSL13 element=Al system=Al-58-d-4.19 distance=4.19 energy=-771.52621654 stress_kbar_3x3="_JSON [[-35.60449274, -3.14238546, 1.50100412], [-3.14238544, -37.32436474, 1.94100285], [1.50100415, 1.94100284, -18.74956046]]" pbc="T T T"
Ti       2.49866863      -0.86411755       0.02486296      -0.00546000      -0.00615888      -0.00070468
Ti       5.78786760       1.58805627       0.00911075      -0.00319309      -0.00795299      -0.00095292
Ti       5.01399881      -0.77402522       1.38977444      -0.00434276      -0.00358938      -0.00077505
Ti       4.60829293       3.81118168       1.37395678      -0.00077487      -0.00543069      -0.00124600
Ti       7.11970648       3.89286283       2.62196822      -0.00183293      -0.00629586       0.00151429
Ti       3.82906817       1.44189910       2.63759291      -0.00460588      -0.00493015       0.00190718
Ti       1.68211675      -0.41161435       2.88740025      -0.00098970      -0.00587809      -0.00045123
Ti       2.16159527       3.66260741       2.87153746      -0.00456753      -0.00377101      -0.00034379
Ti       4.75700209       3.67216635       4.17075829      -0.00393418      -0.00236560       0.00065507
Ti       4.81931282      -0.71486200       4.18653481      -0.00056473      -0.00417672       0.00077972
Ti       3.45610711       5.88573733       5.23946366      -0.00210776      -0.00153263       0.00334850
Ti       2.96024135       1.82109405       5.25517439      -0.00041642      -0.00252100       0.00382205
Ti       2.41550082      -0.93621351       5.76872336      -0.00093852      -0.00188986      -0.00158512
Ti       5.76694346       1.47967102       5.75319769      -0.00087670      -0.00198396      -0.00128978
Ti       4.27108786       3.77808653       6.95375550       0.00051496      -0.00238471      -0.00208542
Ti       5.15417052      -1.08262306       6.96928870      -0.00214149      -0.00070770      -0.00176250
Ti       6.92368511       3.59697597       7.83805272       0.00284134      -0.00064628       0.00012708
Ti       3.67097145       1.12357910       7.85378108      -0.00203160       0.00242082       0.00048308
Ti       6.37589134       0.88972888       8.61374328       0.00124980       0.00080051      -0.00275437
Ti       1.60044567      -0.70378993       8.62947916      -0.00051286       0.00129192      -0.00228643
Ti       4.79206004       3.17831474       9.67853250      -0.00053333       0.00003886      -0.00026868
Ti       4.37441672      -0.93192084       9.69438674       0.00047048      -0.00011939      -0.00029578
Ti       3.17347557       5.40874977      10.46894940      -0.00054861      -0.00032726       0.00283560
Ti       2.68922360       1.33777488      10.48498817       0.00174035      -0.00007359       0.00239856
Ti       5.89450961       5.19604993      11.42826403       0.00234183      -0.00093232       0.00347960
Ti       5.57021569       1.03230342      11.44406691      -0.00078243       0.00026969       0.00234671
Ti       0.58866200       0.90940941      12.36593983      -0.00253644       0.00198663       0.00525151
Ti       3.85354754       3.37467415      12.35057284       0.00015841       0.00001361       0.00423205
Ti       3.30330520       0.64758418      13.17383015      -0.00198533      -0.00205951       0.00675766
Ti       6.69602086       3.04023881      13.15693148      -0.00141273      -0.00083617       0.00787356
Ti       5.08592655       5.35474572      14.26230934       0.00114048       0.00171139       0.00821130
Ti       6.11271375       0.41143237      14.27728117      -0.00060328      -0.00106330       0.00796195
Ti       4.53888409       2.63230216      14.96901382       0.00147931       0.00045605       0.00043509
Ti       4.02802374      -1.42357352      14.98369588      -0.00012942      -0.00232430       0.00313005
Ti       7.16456103       2.49381702      15.90199895      -0.00116544       0.00544196       0.00461069
Ti       2.59770049       0.78307454      15.91914420      -0.00337700      -0.00469293       0.00375652
Ti       5.73076869       4.78060735      17.14025797      -0.00043484       0.00243726       0.00831214
Ti       5.28967059       0.68418515      17.14914529      -0.00239952       0.00059227       0.00951817
Ti       3.60063087       2.92649784      17.57074251       0.00209665      -0.00175909      -0.00105660
Ti       0.32332692       0.46986569      17.58896160      -0.00123539      -0.00593740      -0.00235043
Ti       2.87297999       0.48792458      18.71854601      -0.00324303       0.00122321       0.00617033
Ti       6.76402177       2.58373874      18.69824140       0.00834423       0.00702549       0.00610520
Ti       4.90382400       5.17612838      20.01668158      -0.00133029       0.00281913       0.00465085
Ti       1.61180302       2.72131025      20.02698069       0.00074773       0.00504971       0.00662834
Ti       4.36845214       2.39097211      20.21095665      -0.00079988      -0.00090818      -0.00572266
Ti       3.89365792      -1.69290799      20.22312849      -0.00565095      -0.00542710      -0.00391594
Ti       6.86630457       2.46848212      21.48428243      -0.00146059       0.00616991      -0.00058681
Ti       2.72198171       0.52236611      21.50774481       0.00790711      -0.00213037      -0.00248071
Ti       3.55343246       2.82199857      22.90071758      -0.00027595      -0.00390702       0.00130188
Ti       0.26523690       0.37621769      22.89871924      -0.00397463      -0.00410941       0.00528926
Ti       5.70997293       4.69603575      22.89069576       0.00929381       0.00602359       0.00653576
Ti       5.20416417       0.61170570      22.90420574      -0.00298849       0.00563471       0.00403973
Ti       2.70444534       0.53684134      24.31271180      -0.00705914      -0.00079189       0.01278116
Ti       6.85084634       2.43973491      24.25875851       0.00288474       0.00712550      -0.00858950
Ti       3.82103317      -1.72641246      25.49986760      -0.00875176       0.00088266      -0.00598374
Ti       4.38068631       2.42554584      25.55055619       0.00141964       0.00876302       0.00257734
Ti       1.56292493       2.69827348      25.82015357      -0.00743537       0.00017610       0.00380259
Ti       4.88704062       5.22065019      25.72299066       0.00709059       0.00335341       0.00535939
Al       3.03529705       0.41621014      27.05197584       0.01036401      -0.01137873      -0.00641167
Ti       6.77965436       2.60979450      27.04612413       0.00904628       0.00404948       0.00343804
Ti       0.37911799       0.57797680      28.11024868      -0.01116663       0.01180942       0.00222975
Ti       3.59460671       2.96255179      28.13539974       0.00456821       0.01039824      -0.00445339
Ti       5.32249846       0.81327123      28.68900073      -0.00503186       0.01069406       0.01607886
Ti       5.77399695       4.79944461      28.60290753       0.00804381      -0.00080306       0.00256448
Ti       7.26384742       2.55410810      29.83856047       0.00438351      -0.00391903      -0.00978642
Ti       2.64273350       0.82512864      29.80759601      -0.00297406       0.00808671      -0.00678089
Ti       4.56283241       2.72508410      30.72158414       0.00527465       0.00946307      -0.01647759
Ti       4.06826509      -1.36425693      30.75436186       0.00635993      -0.00102689      -0.00342774
Ti       6.13408221       0.47020532      31.47518613       0.00423762       0.00807570      -0.00320000
Ti       5.15389454       5.42571737      31.46738580       0.01007076       0.00533101       0.00747084
Ti       3.36507822       0.71951332      32.56161305       0.00559796       0.00661156      -0.00899928
Ti       6.72631583       3.11013538      32.55650989       0.00253227       0.00908392      -0.00617039
Ti       3.90655402       3.44992537      33.34758430       0.00320733       0.00226975      -0.01263645
Ti       0.61924477       0.99946406      33.37789567       0.00305175       0.00537108      -0.01439389
Ti       5.93601286       5.27075662      34.30179450       0.00552485      -0.00178550      -0.00273616
Ti       5.61909623       1.10814905      34.31796515       0.00498221       0.00105962      -0.00258829
Ti       3.23253607       5.48349184      35.21914609       0.00074637       0.00628173      -0.00386897
Ti       2.72965088       1.42015560      35.23351955       0.00219589       0.00484996       0.00205222
Ti       4.81261004       3.26926119      36.03707803      -0.00313783       0.00389784       0.00311786
Ti       4.44282692      -0.87116718      36.05776089       0.00614755       0.00002941      -0.00442742
Ti       6.42290896       0.95215747      37.17309165       0.00232358      -0.00205647       0.00054021
Ti       1.63409837      -0.63443183      37.18654248       0.00085783      -0.00014853       0.00368393
Ti       6.97807516       3.67507433      37.82685987       0.00311910      -0.00183512      -0.00436645
Ti       3.71457873       1.21227514      37.84105994       0.00010205       0.00112140      -0.00263340
Ti       4.36685775       3.79577195      38.78522578      -0.00063957       0.00004135       0.00203694
Ti       5.12298985      -0.99173983      38.80272955      -0.00251572       0.00022251       0.00250804
Ti       5.76905507       1.51593028      40.05934566       0.00113295      -0.00200102      -0.00223442
Ti       2.44757324      -0.91699723      40.07504709      -0.00019687      -0.00160836      -0.00499541
Ti       3.47622176       5.92914494      40.42295203      -0.00570655      -0.00565756      -0.00379552
Ti       2.98797630       1.85761357      40.43800257      -0.00040450      -0.00499066      -0.00524114
Ti       4.71114843       3.71517182      41.58940743      -0.00196415      -0.00280773      -0.00229051
Ti       4.88009264      -0.73289654      41.60474183      -0.00148805      -0.00381416      -0.00029791
Ti       2.16511201       3.66313380      42.93182524      -0.00497793      -0.00534843      -0.00435844
Ti       1.68157261      -0.40812945      42.94800803      -0.00279856      -0.00712291      -0.00459397
Ti       7.12479153       3.89566973      43.06032700      -0.00051525      -0.00414401      -0.00420187
Ti       3.82933311       1.44740285      43.07671783      -0.00345835      -0.00249111      -0.00528267
Ti       4.63521943       3.79580807      44.37823671      -0.00224982      -0.00419257      -0.00272847
Ti       4.98724794      -0.75866889      44.39385415      -0.00220315      -0.00413734      -0.00320745
Ti       3.50556285       6.00131184      45.73754499      -0.00454740      -0.00340449      -0.00039358
Ti       3.03582723       1.92212139      45.75328357      -0.00021081      -0.00616679      -0.00024323
