100
Lattice="4.4265 -2.555641 0.0 3.767997 6.526363 -0.031456 0.0 0.0 45.781652" Properties=species:S:1:pos:R:3 job_name=CSL13-Zn-Zn-55-d-2.65 GB_type=CSL13 element=Zn system=Zn-55-d-2.65 distance=2.65 energy=-768.38433333 pbc="T T T"
Ti       2.43308203      -0.98371418       0.07120769
Ti       5.72987926       1.46070752       0.05472086
Ti       4.96518784      -0.90090825       1.39685660
Ti       4.53349120       3.70115945       1.38159565
Ti       7.05754261       3.77612536       2.60955797
Ti       3.76401022       1.32663431       2.62675307
Ti       1.62924934      -0.52528906       2.90971284
Ti       2.09586575       3.55699075       2.89636713
Ti       4.70734958       3.56647456       4.18302558
Ti       4.75511385      -0.81128110       4.19640684
Ti       3.39733813       5.78905093       5.23513585
Ti       2.90669210       1.72143225       5.25191150
Ti       2.35685418      -1.02325403       5.78374026
Ti       5.72073804       1.38443928       5.76659814
Ti       4.21743044       3.69906937       6.96265016
Ti       5.10862279      -1.16634587       6.97895872
Ti       6.87929737       3.51394142       7.83872797
Ti       3.61740773       1.04644501       7.85480940
Ti       6.32459811       0.81852192       8.63351818
Ti       1.56240445      -0.77991280       8.64736151
Ti       4.75515775       3.10085625       9.68739227
Ti       4.32133175      -0.99858230       9.70362411
Ti       3.12216210       5.33828944      10.47926764
Ti       2.64885749       1.26127765      10.49472834
Ti       5.85185471       5.12593008      11.46702781
Ti       5.52546589       0.96291444      11.48297599
Ti       0.54576185       0.83544343      12.36414818
Ti       3.80331091       3.30110870      12.34775989
Ti       3.23764225       0.59174876      13.19131236
Ti       6.67567531       2.95921081      13.17731523
Ti       5.04109947       5.29935194      14.32478500
Ti       6.07743660       0.34665978      14.34120013
Ti       4.48746785       2.56137596      14.94841398
Ti       3.98628282      -1.50103779      14.96363846
Ti       7.08506482       2.47533983      15.93893482
Ti       2.60966460       0.70468693      15.95247914
Ti       5.71827824       4.74414537      17.22647832
Ti       5.24622140       0.66059513      17.24486491
Ti       3.56352476       2.88120352      17.54817012
Ti       0.29280421       0.42856581      17.56742298
Ti       2.80314932       0.48338089      18.76380514
Ti       6.79122556       2.53752419      18.74110886
Ti       4.86829729       5.17256360      20.12315576
Ti       1.61921322       2.70658153      20.14558894
Ti       4.36304280       2.35839478      20.17268220
Ti       3.87155434      -1.69708805      20.18203737
Ti       6.78438061       2.50460432      21.55914269
Ti       2.73839133       0.47032887      21.58107874
Ti       3.42740296       2.84960094      22.74364106
Ti       0.23545473       0.40677124      22.79884493
Ti       5.62881789       4.65991310      23.07649702
Ti       5.17889043       0.67739761      22.98582908
Ti       2.56723262       0.61350508      24.39382181
Ti       6.99562057       2.40648620      24.39132652
Ti       3.93109195      -1.59126478      25.34731629
Zn       4.36708680       2.55438095      25.22597714
Ti       5.89971969       0.31775721      25.92601352
Ti       5.02971538       5.18623961      25.95924259
Ti       3.27323189       0.51436596      27.10702742
Ti       6.47825718       2.88481406      27.11349919
Ti       0.50522008       0.77259799      27.87894010
Ti       3.70814221       3.30083329      27.78107459
Ti       5.56111396       0.87347564      28.86293205
Ti       5.79302450       5.00339337      28.74975318
Ti       3.14070872       5.28626966      29.73624406
Ti       2.59307149       1.14598841      29.76839712
Ti       4.67192048       3.03140022      30.48361127
Ti       4.30209655      -1.08915679      30.55094077
Ti       1.89899401       3.25197017      31.64971849
Ti       1.54862410      -0.89016676      31.65300398
Ti       3.62372747       0.97353089      32.35298795
Ti       6.83564552       3.40886049      32.35917084
Ti       4.22377236       3.59276731      33.26278350
Ti       5.04817541      -1.25443659      33.28125461
Ti       2.35242940      -1.13702275      34.49914698
Ti       5.69047301       1.28527256      34.49859997
Ti       3.38188314       5.70400112      34.95268096
Ti       2.88322691       1.62389173      34.95846432
Ti       4.66551834       3.48257101      36.05049732
Ti       4.75504503      -0.91317280      36.06838230
Ti       2.08338768       3.47274013      37.35054727
Ti       1.61238223      -0.60228256      37.36861165
Ti       7.04173363       3.69677013      37.58998246
Ti       3.74830282       1.25254217      37.60346392
Ti       4.52686113       3.63827247      38.84308279
Ti       4.94485498      -0.96226664      38.86194947
Ti       5.72300486       1.41967810      40.18667114
Ti       2.42046662      -1.02792873      40.20105622
Ti       3.42628877       5.83364629      40.28145057
Ti       2.96642140       1.74846311      40.29457256
Ti       4.59001042       3.62763836      41.61717724
Ti       4.89648452      -0.89609010      41.63316592
Ti       2.09496237       3.54129832      43.01216944
Ti       1.63416553      -0.54468830      43.02724462
Ti       7.07429480       3.75589679      42.99443127
Ti       3.75709241       1.31940329      43.01288342
Ti       4.59691325       3.65186200      44.38616945
Ti       4.89851113      -0.87415127      44.40347667
Ti       3.43667081       5.87539961      45.70634510
Ti       2.97300921       1.78999900      45.71979413
