100
Lattice="4.4265 -2.555641 0.0 3.767997 6.526363 -0.031456 0.0 0.0 45.781652" Properties=species:S:1:pos:R:3:forces:R:3 job_name=CSL13-Zr-Zr-50-d-0.00 GB_type=CSL13 element=Zr system=Zr-50-d-0.00 distance=0.0 energy=-775.53111742 stress_kbar_3x3="_JSON [[-31.29784896, -2.69793867, 0.6577511], [-2.69793872, -33.14327579, 1.03200731], [0.65775117, 1.03200733, -13.54105861]]" pbc="T T T"
Ti       2.47540665      -0.89969292       0.02188587       0.00030236      -0.00054828      -0.00086027
Ti       5.76949595       1.54925444       0.00613490       0.00005783       0.00040299      -0.00061881
Ti       4.98855675      -0.80811224       1.38224778      -0.00449027      -0.00540344       0.00046455
Ti       4.59248896       3.77164970       1.36667774      -0.00190784      -0.00659366       0.00025642
Ti       7.10174432       3.85775391       2.62607539      -0.00151006      -0.00379538      -0.00047065
Ti       3.80876594       1.40791614       2.64156863      -0.00201125      -0.00433920       0.00018172
Ti       1.66383798      -0.44422704       2.86893667      -0.00307937      -0.00753415      -0.00005551
Ti       2.14357091       3.62964729       2.85305317      -0.00439030      -0.00735636       0.00045024
Ti       4.72586820       3.65248609       4.15470366      -0.00224563      -0.00243083       0.00011239
Ti       4.81949532      -0.75225484       4.17079649      -0.00003922      -0.00261609      -0.00014925
Ti       3.44641779       5.86921028       5.24548940      -0.00316888      -0.00515029       0.00818680
Ti       2.95298610       1.80308448       5.26126963      -0.00187650      -0.00595637       0.00784427
Ti       2.41025902      -0.95769318       5.73584344      -0.00193381      -0.00150852       0.00175529
Ti       5.75376491       1.46327046       5.72033623      -0.00006357      -0.00307951       0.00190843
Ti       4.28773505       3.75923534       6.93641946       0.00119217      -0.00182620       0.00507691
Ti       5.13254348      -1.07942036       6.95235423      -0.00114766       0.00123905       0.00498661
Ti       6.92852292       3.59993539       7.83792908      -0.00114601      -0.00025331       0.00074398
Ti       3.67499412       1.12731739       7.85291024      -0.00047773      -0.00044176       0.00147088
Ti       6.38075235       0.88806033       8.57956854      -0.00073845      -0.00071388      -0.00337147
Ti       1.60059821      -0.70238103       8.59519026       0.00192784      -0.00064744      -0.00210912
Ti       4.78966682       3.18975341       9.66310519       0.00042527      -0.00012569      -0.00187223
Ti       4.38944826      -0.93047619       9.68019349       0.00133633       0.00101899      -0.00239599
Ti       3.18796061       5.41604486      10.45655634       0.00132023       0.00112931       0.00163338
Ti       2.69355499       1.35000691      10.47113411       0.00065198       0.00130964       0.00052063
Ti       5.90224316       5.20629405      11.39230975       0.00031049       0.00325851       0.00185781
Ti       5.58189632       1.04204513      11.40867267       0.00022300       0.00020813       0.00218683
Ti       0.59712348       0.92766079      12.35434025      -0.00134584       0.00262990       0.00608516
Ti       3.86780974       3.38731572      12.33720770       0.00015313       0.00402452       0.00412805
Ti       3.32547137       0.65569973      13.14810665       0.00191643       0.00033235       0.00208275
Ti       6.69819205       3.05692362      13.13416869       0.00171245       0.00298935       0.00699729
Ti       5.10305352       5.36695788      14.21887590       0.00281865       0.00053981       0.00324570
Ti       6.11482080       0.42738106      14.24198827       0.00118806       0.00281424       0.00380504
Ti       4.55647233       2.65673055      14.95405923       0.00355442       0.00450073       0.00571566
Ti       4.04109305      -1.40565238      14.97369678       0.00054735       0.00110342       0.00061003
Ti       7.19198906       2.49723354      15.86593657       0.00023034       0.00177104      -0.00048019
Ti       2.59444004       0.80930209      15.87720096      -0.00048449       0.00207008      -0.00220308
Ti       5.73227638       4.80009370      17.07012186      -0.00169025      -0.00014106      -0.00297683
Ti       5.30422376       0.69895524      17.09950408       0.00198429       0.00538766       0.00161957
Ti       3.60847099       2.94615373      17.54796040       0.00268940       0.00528170      -0.00001526
Ti       0.34180777       0.49716865      17.57349244      -0.00122924       0.00431796      -0.00674861
Ti       2.90539634       0.50258109      18.66683086       0.00622709       0.00445239      -0.00182371
Ti       6.75336055       2.61009037      18.65387802      -0.00381913      -0.00238704      -0.00127066
Ti       4.91872594       5.20544978      19.88452889      -0.00312369      -0.00459643       0.00108710
Ti       1.61869977       2.74616888      19.98742413      -0.00033090       0.00970836       0.00172401
Ti       4.38627258       2.42010547      20.18636496       0.00314008       0.00290188      -0.00010157
Ti       3.91921258      -1.67363179      20.19248470       0.00303845       0.00497379      -0.00002736
Ti       6.91320390       2.45607702      21.45241702      -0.00366430      -0.00485209       0.00154672
Ti       2.72587155       0.56473896      21.44005553       0.00866944       0.01129796       0.00816522
Ti       3.47666710       2.79041562      22.86872622      -0.00648300      -0.00204341       0.00111631
Ti       0.29052611       0.48824953      22.88227228       0.00142506       0.00319573       0.00113829
Zr       5.65836022       4.69316415      22.86690309       0.00657516       0.00747423       0.00729074
Ti       5.19779632       0.68152508      22.88377118       0.01303880       0.00619023       0.00191236
Ti       2.72318565       0.57359421      24.32890367       0.00901357       0.01218319      -0.00452499
Ti       6.92333234       2.45705050      24.28573799      -0.00525721      -0.00434095       0.00059130
Ti       3.92886215      -1.66258604      25.56921407       0.00363315       0.00597520      -0.00080888
Ti       4.39440649       2.42963472      25.54370413       0.00418078       0.00095039      -0.00074027
Ti       1.62513239       2.75989308      25.77761427      -0.00110096       0.00739531      -0.00346928
Ti       4.92960979       5.21367102      25.85340241      -0.00452873      -0.00437379      -0.00310143
Ti       2.93563714       0.50921172      27.10619162       0.00681422       0.00834053       0.00310999
Ti       6.74935890       2.63864298      27.08844687      -0.00219567      -0.00164066      -0.00080315
Ti       0.36531154       0.53198065      28.17600313       0.00044708       0.00335342       0.00492234
Ti       3.62753174       2.97901542      28.16949343      -0.00012638       0.00267556      -0.00155153
Ti       5.33370254       0.72552554      28.67049027       0.00081933       0.00586005      -0.00358749
Ti       5.74145040       4.83681062      28.67152990       0.00075323       0.00351263       0.00121614
Ti       7.24389804       2.52508872      29.87035604       0.00128891       0.00354111      -0.00079100
Ti       2.59951366       0.86668520      29.89058316       0.00102974       0.00293020      -0.00050670
Ti       4.59355233       2.71888936      30.75631635       0.00228095       0.00422226      -0.00627489
Ti       4.07850932      -1.34769829      30.76950354       0.00073184       0.00165203      -0.00051160
Ti       6.13671635       0.48816705      31.52555127       0.00304285       0.00135802      -0.00233810
Ti       5.14782080       5.41703844      31.51956181       0.00254455       0.00208479      -0.00188924
Ti       3.38277512       0.70915556      32.60404746       0.00057697       0.00014737      -0.00303107
Ti       6.71984860       3.13038527      32.58628303       0.00319999       0.00319984      -0.00680006
Ti       3.92037537       3.45460198      33.37697057       0.00030186       0.00290507      -0.00288360
Ti       0.63230510       1.00597058      33.39254820      -0.00318088       0.00247764      -0.00551689
Ti       2.17449737      -1.24899040      34.38684865       0.00155357       0.00258269      -0.00111812
Ti       5.62738093       1.11120122      34.37024497      -0.00066706       0.00016970      -0.00033573
Ti       3.24238214       5.49078699      35.23884049       0.00065335       0.00104596      -0.00197757
Ti       2.73370282       1.43264335      35.25651194       0.00205545       0.00091764      -0.00045515
Ti       4.80204619       3.27886571      36.06276856      -0.00074887      -0.00035250       0.00247138
Ti       4.46245047      -0.87590344      36.07717174       0.00274227      -0.00025993       0.00261409
Ti       6.42307882       0.94305977      37.21461960      -0.00019956      -0.00265984       0.00059476
Ti       1.62842367      -0.63885541      37.22957167      -0.00011078      -0.00081202      -0.00032911
Ti       6.97891493       3.67392968      37.83182581      -0.00190980      -0.00113080      -0.00487543
Ti       3.71497708       1.20683399      37.84900260      -0.00065796      -0.00070875      -0.00538592
Ti       4.37703516       3.77096789      38.80974304      -0.00013612      -0.00565076      -0.00546066
Ti       5.09917295      -0.99746896      38.82528176      -0.00286699      -0.00144878      -0.00614070
Ti       5.75356937       1.49426391      40.08768861      -0.00238821      -0.00338246      -0.00248597
Ti       2.43783211      -0.94264751      40.10348904      -0.00152580      -0.00414164      -0.00187683
Ti       3.46044599       5.90371894      40.42337786       0.00027853      -0.00374449      -0.00629469
Ti       2.97655390       1.83229430      40.43932190      -0.00165148      -0.00175348      -0.00606909
Ti       4.68639435       3.68923094      41.60520598      -0.00385575      -0.00445106       0.00165581
Ti       4.87144920      -0.76826658      41.62054656      -0.00166577      -0.00625136       0.00229456
Ti       2.14442196       3.63169858      42.94388243      -0.00322492      -0.00799425       0.00083755
Ti       1.66547790      -0.44260614      42.95944296      -0.00453112      -0.00798699       0.00152883
Ti       7.10699627       3.85921503      43.06252473      -0.00225669      -0.00124496       0.00264242
Ti       3.80770336       1.41306394      43.07864329       0.00076725      -0.00331178       0.00181784
Ti       4.61535856       3.75866181      44.38300620      -0.00144625      -0.00685231      -0.00326976
Ti       4.96604427      -0.79483581      44.39881410      -0.00537897      -0.00682018      -0.00215923
Ti       3.48231405       5.96508888      45.74016743      -0.00959027      -0.00750777       0.00004409
Ti       3.01675263       1.88317533      45.75589137      -0.00176593      -0.01284267       0.00066649
