100
Lattice="4.4265 -2.555641 0.0 3.767997 6.526363 -0.031456 0.0 0.0 45.781652" Properties=species:S:1:pos:R:3:forces:R:3 job_name=CSL13-Cu-Cu-64-d-6.97 GB_type=CSL13 element=Cu system=Cu-64-d-6.97 distance=6.97 energy=-770.46621835 stress_kbar_3x3="_JSON [[-38.9194169, -3.31716384, 2.29025112], [-3.31716385, -38.46990166, 0.14665025], [2.29025115, 0.14665022, -20.87387746]]" pbc="T T T"
Ti       2.48965089      -0.87959357       0.01149830       0.00132327       0.00237242       0.00095948
Ti       5.78085170       1.56984458      -0.00341519       0.00198407       0.00352187       0.00023581
Ti       5.00536472      -0.78807375       1.37652299       0.00030551      -0.00054977       0.00102304
Ti       4.60150724       3.79561363       1.35983542       0.00171467      -0.00155676       0.00152497
Ti       7.11373632       3.87937950       2.61619800      -0.00079494      -0.00573779       0.00091361
Ti       3.82156933       1.42923420       2.63157667      -0.00293854      -0.00328631       0.00150019
Ti       1.67473189      -0.42644250       2.87627833      -0.00065817       0.00106417      -0.00293035
Ti       2.15338764       3.64734312       2.86053403       0.00168456       0.00212440      -0.00295217
Ti       4.74390280       3.66494183       4.16081502      -0.00224667       0.00064998      -0.00094120
Ti       4.82082540      -0.73042326       4.17627055      -0.00012267      -0.00123186       0.00056835
Ti       3.45213708       5.88162013       5.24376952      -0.00227525      -0.00141632      -0.00097742
Ti       2.95923502       1.81524384       5.25939004      -0.00004556      -0.00358173      -0.00093335
Ti       2.41346813      -0.94358738       5.75803203       0.00153424      -0.00178348      -0.00063510
Ti       5.76227207       1.47362874       5.74234504      -0.00158092       0.00015523      -0.00059597
Ti       4.27945838       3.77110667       6.95021848      -0.00042295      -0.00183963       0.00208141
Ti       5.14423601      -1.07915373       6.96592779      -0.00114050      -0.00144929       0.00151828
Ti       6.92789182       3.59739049       7.84786668       0.00126248       0.00009118       0.00136922
Ti       3.66987807       1.12741765       7.86364550      -0.00057819       0.00195127       0.00155680
Ti       6.37787510       0.89017683       8.61249293       0.00112662      -0.00206790       0.00175382
Ti       1.60023701      -0.70224086       8.62832717      -0.00180655      -0.00021168       0.00210074
Ti       4.78981169       3.18042460       9.68310126       0.00021298      -0.00132903       0.00139477
Ti       4.37728106      -0.93215041       9.69869044      -0.00061119      -0.00198215       0.00127913
Ti       3.17272033       5.40814273      10.48363186       0.00102565       0.00329030      -0.00115873
Ti       2.68927484       1.33624532      10.49948411       0.00179205       0.00240332      -0.00207919
Ti       5.89528839       5.19347883      11.44127897       0.00065409       0.00072679      -0.00216231
Ti       5.56823742       1.03135923      11.45660824      -0.00045545       0.00173253      -0.00188286
Ti       0.58501761       0.91007145      12.37763642      -0.00192389      -0.00213483       0.00082605
Ti       3.85441680       3.37233708      12.36200324      -0.00037055      -0.00105482       0.00040456
Ti       3.29828232       0.64817201      13.19277358       0.00214763       0.00140340      -0.00051106
Ti       6.69719031       3.03654986      13.17697069       0.00339782       0.00198003      -0.00130133
Ti       5.08697546       5.35475873      14.28540983      -0.00052356       0.00260358      -0.00123951
Ti       6.11017986       0.41237888      14.30149400       0.00202308      -0.00169239      -0.00069190
Ti       4.53623796       2.63502364      14.98333595      -0.00282212       0.00016321       0.00129093
Ti       4.03011786      -1.42474101      14.99823196       0.00080855       0.00113419       0.00135074
Ti       7.16039794       2.50393536      15.92607288       0.00111037       0.00289732       0.00177383
Ti       2.60479986       0.78227468      15.93999871      -0.00099005       0.00258461      -0.00245663
Ti       5.73700688       4.79053646      17.16020901      -0.00011973      -0.00264723       0.00060865
Ti       5.29453805       0.69409748      17.17679759       0.00117486       0.00296017       0.00158889
Ti       3.60784090       2.93811206      17.59315217       0.00168890       0.00113314       0.00175274
Ti       0.32728925       0.48200299      17.60811954       0.00026728      -0.00113688       0.00091183
Ti       2.87703607       0.50097719      18.73903022      -0.00026912       0.00227359       0.00210057
Ti       6.77588148       2.60036699      18.72633335      -0.00464031       0.00222651      -0.00231649
Ti       4.91374367       5.19337594      20.02758114      -0.00563375       0.00357459       0.00526037
Ti       1.62583151       2.74544463      20.04589741      -0.00227708       0.00003153       0.00393488
Ti       4.37981645       2.40958374      20.23997285       0.00383262       0.00432248       0.00002787
Ti       3.90276768      -1.66803892      20.25681125       0.00971735       0.00238086      -0.00257718
Ti       6.88466665       2.49790206      21.51906934      -0.00243335       0.00403400      -0.00604914
Ti       2.72146791       0.54851927      21.53750504       0.00201317       0.00243218       0.00231247
Ti       3.56604599       2.86173344      22.93483096       0.00332886       0.00369202      -0.00114464
Ti       0.25867487       0.41592297      22.95273845       0.00605151       0.01272224       0.00198073
Ti       5.70321658       4.72393708      22.87064323      -0.00602052      -0.00128565       0.00664417
Ti       5.23411201       0.64709062      22.90068586      -0.00802240      -0.00836328       0.00202634
Ti       2.73751071       0.54114584      24.30669721       0.00426500       0.00083358      -0.00110009
Ti       6.84707661       2.52421283      24.30539658       0.00340100       0.00038868       0.00598907
Ti       3.90068010      -1.67536116      25.65697020      -0.00225510       0.00207485      -0.00288375
Ti       4.35984590       2.43023640      25.64098898      -0.00216750       0.00569769       0.00282217
Ti       1.60688069       2.77601684      25.74641332       0.00002178      -0.00260754       0.00478810
Ti       4.88465240       5.19887318      25.74374908       0.00194594      -0.00359738      -0.00163442
Ti       2.80863139       0.51232693      27.05780104      -0.00918659       0.01487468       0.00041849
Ti       6.78125134       2.62588680      27.11065161      -0.00506806      -0.00386991       0.00309780
Ti       0.34143696       0.57485097      28.29030317      -0.00585743      -0.00496294      -0.00206926
Ti       3.44603648       2.92995837      28.21780663      -0.00253572      -0.00063471      -0.01015869
Ti       5.20927128       0.80955686      28.57408734       0.00943729       0.01489336      -0.00871354
Ti       5.63789758       4.79112246      28.60349166      -0.00035092      -0.00055436       0.00403845
Cu       7.25620463       2.47355057      29.78315197       0.00291295       0.00306099       0.00181496
Ti       2.68036895       0.79425049      29.86106787       0.00531511      -0.00758710      -0.00668009
Ti       4.62189989       2.83736668      30.67353977      -0.00190089       0.00056934       0.00452443
Ti       3.92766056      -1.46278822      30.80005487      -0.00835614       0.00225335       0.00576757
Ti       1.72536721       2.94796733      31.40067272      -0.00251057       0.00052604       0.00461129
Ti       5.04180102       5.54275783      31.43830067       0.00609071      -0.00815374       0.00919825
Ti       3.47254952       0.71942907      32.53813757       0.00506341      -0.01304254       0.00076616
Ti       6.79441386       3.02100314      32.49265711       0.00109651       0.00253780      -0.00797413
Ti       3.90837638       3.39365493      33.35160636      -0.00306010      -0.00328656       0.00131177
Ti       0.63996461       1.01857082      33.31665034      -0.00452708       0.00466305       0.00235606
Ti       5.98631736       5.21408944      34.22902389      -0.00652289       0.00966668      -0.00507523
Ti       5.67481322       1.10691142      34.30676784       0.00128749      -0.00241177      -0.00109388
Ti       3.29608808       5.50796576      35.15259813       0.00268371       0.00296293       0.00047020
Ti       2.75781522       1.36926011      35.20316574       0.00434245      -0.00043461      -0.00016828
Ti       4.82087886       3.28554179      36.02221107       0.00054157      -0.00596402      -0.00188802
Ti       4.46108161      -0.86857062      36.02386003       0.00241177       0.00517220      -0.00086224
Ti       2.04367442       3.48471632      37.15815850      -0.00196092      -0.00209113      -0.00305983
Ti       1.68186805      -0.62918361      37.14963965      -0.00053069      -0.00028457       0.00405016
Ti       7.00647966       3.64907354      37.77636790       0.00132304       0.00020404      -0.00276175
Ti       3.75675304       1.23462507      37.79802341      -0.00408219      -0.00170045      -0.00371060
Ti       4.40472157       3.79200467      38.76750138       0.00002398      -0.00335639      -0.00528807
Ti       5.12352140      -0.98802090      38.77958780       0.00234808      -0.00844551      -0.00165891
Ti       5.77820733       1.51002208      40.05166099      -0.00058303      -0.00445992      -0.00284142
Ti       2.46711433      -0.93135513      40.05665341      -0.00013459       0.00309306      -0.00680514
Ti       3.48279726       5.92516574      40.39158708       0.00816444       0.00315745      -0.00517668
Ti       2.99546742       1.84860588      40.39687122       0.00085733      -0.00697505       0.00201383
Ti       4.70402808       3.70241629      41.57377564      -0.00335194       0.00110603       0.00213897
Ti       4.88747048      -0.74970191      41.58671756       0.00771753      -0.00131108       0.00018560
Ti       2.16063278       3.64276834      42.91867599       0.00026566       0.00594607      -0.00126869
Ti       1.67805329      -0.42336934      42.93229758       0.00336939       0.00340674       0.00052572
Ti       7.12367524       3.87993502      43.03361759      -0.00073730      -0.00419771       0.00127806
Ti       3.82720250       1.43214537      43.05012430      -0.00198871      -0.00638902      -0.00013637
Ti       4.63266401       3.77746724      44.36116962       0.00076146      -0.00101682       0.00159193
Ti       4.97878648      -0.77403247      44.37750643      -0.00120787      -0.00158088      -0.00156756
Ti       3.49736671       5.98847401      45.72114556      -0.00559134      -0.00639861      -0.00020229
Ti       3.03148282       1.90827102      45.73597632      -0.00163821      -0.01006864       0.00198121
