100
Lattice="4.4265 -2.555641 0.0 3.767997 6.526363 -0.031456 0.0 0.0 45.781652" Properties=species:S:1:pos:R:3:forces:R:3 job_name=CSL13-Zr-Zr-52-d-1.39 GB_type=CSL13 element=Zr system=Zr-52-d-1.39 distance=1.39 energy=-775.23309954 stress_kbar_3x3="_JSON [[-31.32395476, -1.98116575, 0.99876791], [-1.98116578, -33.1985182, 1.36346107], [0.99876798, 1.36346105, -12.27755458]]" pbc="T T T"
Ti       2.48988995      -0.87358883       0.02543424      -0.00239747      -0.01080995       0.00163446
Ti       5.78421121       1.57542001       0.00972722      -0.00787889      -0.00809423       0.00177247
Ti       5.00496692      -0.78396060       1.38785226      -0.00392021      -0.00716912      -0.00209439
Ti       4.60425454       3.79828656       1.37210427      -0.00376399      -0.00679629      -0.00173683
Ti       7.11453783       3.88137624       2.62479382      -0.00388821      -0.00384942      -0.00734484
Ti       3.82186166       1.43146903       2.64048242      -0.00142549      -0.00535268      -0.00715680
Ti       1.67706707      -0.42179294       2.87954908      -0.00512456      -0.00605722      -0.00248077
Ti       2.15541912       3.65288809       2.86380863      -0.00286306      -0.00752001      -0.00246351
Ti       4.74570962       3.66717229       4.16313848      -0.00209191      -0.00364791      -0.00418117
Ti       4.82078256      -0.72701318       4.17880903      -0.00259481      -0.00407242      -0.00403575
Ti       3.45347676       5.88127580       5.23869927      -0.00109039      -0.00357929      -0.00464792
Ti       2.95782078       1.81652894       5.25435721      -0.00265161      -0.00236108      -0.00450546
Ti       2.41403418      -0.94194856       5.75125641      -0.00237871      -0.00315548      -0.00106851
Ti       5.76284953       1.47548812       5.73545880      -0.00087063      -0.00377844      -0.00067526
Ti       4.27664148       3.77298637       6.94184995      -0.00118914      -0.00173150      -0.00256989
Ti       5.14697418      -1.08042289       6.95754174      -0.00013461      -0.00164951      -0.00245937
Ti       6.92410478       3.59910776       7.82817365      -0.00080351      -0.00245671      -0.00410404
Ti       3.67263275       1.12539906       7.84365870      -0.00183121      -0.00182920      -0.00291365
Ti       6.37705869       0.88992355       8.59068191       0.00023336      -0.00103339      -0.00362560
Ti       1.59978135      -0.70304106       8.60654883      -0.00064896       0.00020313      -0.00298140
Ti       4.79199322       3.17966090       9.66210106      -0.00087703      -0.00112310      -0.00838656
Ti       4.37533526      -0.93090204       9.67778944       0.00043781       0.00012303      -0.00864909
Ti       3.17704492       5.40785900      10.44795408      -0.00117219       0.00101863      -0.00376753
Ti       2.68587473       1.34016916      10.46383104       0.00354070      -0.00140616      -0.00465564
Ti       5.89416618       5.19578070      11.40098704       0.00170483       0.00070603      -0.00269262
Ti       5.57055948       1.03205497      11.41654711      -0.00213382       0.00130613      -0.00316056
Ti       0.58975470       0.90911205      12.34130627      -0.00192163       0.00242511      -0.00315319
Ti       3.85163973       3.37614140      12.32587890       0.00055556       0.00060754      -0.00362907
Ti       3.30529069       0.64428885      13.14001265      -0.00148912       0.00269102       0.00049555
Ti       6.69131507       3.04066286      13.12366232       0.00125793       0.00075341       0.00282884
Ti       5.08607798       5.35156153      14.22935988       0.00027249       0.00156170       0.00212303
Ti       6.10906883       0.41059936      14.24390698       0.00241110       0.00183506       0.00185922
Ti       4.53885679       2.62998867      14.92902302       0.00092248       0.00271354       0.00326162
Ti       4.02499446      -1.42368489      14.94487222      -0.00053577       0.00104452      -0.00071145
Ti       7.16329945       2.49616499      15.85358398      -0.00410980       0.00070867       0.00637878
Ti       2.59506977       0.77997770      15.87108885       0.00160466       0.00272554       0.00549761
Ti       5.73084692       4.78547845      17.09509310       0.00132410       0.00173759       0.00642486
Ti       5.29169982       0.68700728      17.10762185       0.00287452       0.00655357       0.00892147
Ti       3.60307210       2.93337763      17.51353523      -0.00098351       0.00300185       0.01128386
Ti       0.32479379       0.47374509      17.53147055       0.00245248       0.00303383       0.01075345
Ti       2.87025341       0.49895401      18.65878791       0.00148271       0.00864040       0.00771776
Ti       6.77624993       2.59498402      18.63905885       0.00022356      -0.00371980       0.01138040
Ti       4.90209596       5.19353517      19.96248953      -0.00076236       0.00288791       0.00697075
Ti       1.62513310       2.74151133      19.98025265       0.00567369       0.01179837       0.00711680
Ti       4.38301288       2.41166321      20.13716074       0.00414658       0.00022144       0.00799601
Ti       3.89345448      -1.67291384      20.15477126       0.00085075      -0.00199451       0.00309782
Ti       6.87364420       2.50110200      21.44472391      -0.00505175      -0.00096549       0.00203703
Ti       2.73252961       0.53969905      21.42458165       0.00834230       0.00961969       0.00248795
Ti       3.59756601       2.88259025      22.80690075      -0.00028964       0.00035337       0.00090008
Ti       4.64504192      -2.15737918      22.81399106      -0.00154371       0.00561963       0.00176655
Ti       5.68917302       4.68768343      22.81732007       0.00557163      -0.00141958       0.00473006
Ti       5.27764700       0.65044869      22.82532933       0.00101099       0.00966990       0.00378090
Zr       2.71622547       0.55695326      24.29675804       0.00382983       0.00747470       0.00425438
Ti       6.89461700       2.49264528      24.25800648      -0.00054992       0.00018487      -0.00190130
Ti       3.92566820      -1.72845947      25.59116303      -0.00235694       0.01309374      -0.00482677
Ti       4.40339012       2.46702608      25.56536237      -0.00805491      -0.00730440      -0.00699693
Ti       6.02476980       0.24822138      25.84758826       0.00678234      -0.00043185      -0.00629855
Ti       4.90941717       5.15145562      25.82557816       0.01036130       0.00665626      -0.00675113
Ti       2.95393558       0.45210562      27.16244779       0.00256361       0.00837064      -0.01202667
Ti       6.75874510       2.62609677      27.10234753      -0.00269178      -0.00072653       0.00139920
Ti       0.37216994       0.50187117      28.18037948       0.00186420      -0.00014461      -0.00353542
Ti       3.63406052       2.96745083      28.17893470       0.00194184       0.00356939      -0.00757711
Ti       5.34524789       0.70423068      28.71069358       0.00530363       0.01162565       0.00082513
Ti       5.73690227       4.80975005      28.68538794      -0.00136429      -0.00027178       0.00024256
Ti       7.24805006       2.51471535      29.89369698       0.00221647      -0.00133213      -0.00346176
Ti       2.57065562       0.85511864      29.90615394       0.00489245       0.00797231      -0.00019601
Ti       4.58435245       2.70168663      30.76770411       0.00695041       0.00350196      -0.00377182
Ti       4.07291185      -1.34685066      30.76888850       0.00441928       0.00691584      -0.00005997
Ti       6.13227528       0.47918407      31.55310237       0.00278519       0.00927059      -0.00130128
Ti       5.14352765       5.39968760      31.53171200       0.00165175       0.00399248       0.00185588
Ti       3.37262373       0.69558244      32.61350172       0.00836855       0.00714338      -0.00362185
Ti       6.70985870       3.12907640      32.60060222       0.00188108      -0.00047574      -0.00382532
Ti       3.91514185       3.44790187      33.38653044       0.00415309       0.00354809      -0.00427509
Ti       0.62444152       0.99618242      33.39679385       0.00364921       0.00558744       0.00084830
Ti       5.93498695       5.27428212      34.36497368      -0.00017483       0.00345426       0.00164958
Ti       5.61405169       1.10614278      34.37933867       0.00447445       0.00381823      -0.00076635
Ti       3.23566229       5.48492786      35.24957052       0.00227311      -0.00025919      -0.00097456
Ti       2.72544482       1.43360180      35.26199776       0.00165553       0.00171593       0.00091736
Ti       4.80166800       3.27554674      36.06872073       0.00129712       0.00438290       0.00076034
Ti       4.45591105      -0.87646985      36.08239440       0.00578950      -0.00017721       0.00130167
Ti       6.42307572       0.94671425      37.21373234      -0.00102153      -0.00152151       0.00247223
Ti       1.62467140      -0.63382496      37.23100241       0.00137969      -0.00204172       0.00155323
Ti       6.97683045       3.68022220      37.84030899      -0.00294981      -0.00099737      -0.00190867
Ti       3.71561493       1.20991132      37.85448144      -0.00223618      -0.00263889      -0.00036816
Ti       4.37318651       3.78373241      38.81164200       0.00181778      -0.00223951       0.00214160
Ti       5.10747928      -0.99057295      38.82776218      -0.00288709       0.00050931       0.00208260
Ti       5.76005283       1.50999820      40.08428365      -0.00256508      -0.00534377       0.00440018
Ti       2.44474568      -0.92680162      40.10094026      -0.00317744      -0.00464289       0.00383766
Ti       3.46885425       5.91937289      40.42870971      -0.00262306      -0.00454766      -0.00036267
Ti       2.98312442       1.84932050      40.44411857      -0.00255409      -0.00494240      -0.00045095
Ti       4.69954159       3.70709955      41.60565138      -0.00302656      -0.00402331       0.00137577
Ti       4.87851989      -0.74699574      41.62149688      -0.00267795      -0.00460763       0.00172895
Ti       2.15699998       3.65435774      42.94318284      -0.00463867      -0.00936529       0.00264623
Ti       1.67723676      -0.41982311      42.95889071      -0.00550282      -0.00878474       0.00260275
Ti       7.11933503       3.88273554      43.06491293      -0.00450789      -0.00307925       0.00184134
Ti       3.82041193       1.43649716      43.08038143      -0.00037546      -0.00574828       0.00204626
Ti       4.62892424       3.78357417      44.38291497      -0.00402599      -0.00800974       0.00412726
Ti       4.97993505      -0.76987316      44.39869746      -0.00508082      -0.00680825       0.00396590
Ti       3.49603810       5.99063909      45.74050874      -0.00016659      -0.00664475       0.00067468
Ti       3.03120061       1.90807873      45.75624218      -0.00556826      -0.00366567       0.00034086
