100
Lattice="4.4265 -2.555641 0.0 3.767997 6.526363 -0.031456 0.0 0.0 45.781652" Properties=species:S:1:pos:R:3:forces:R:3 job_name=CSL13-Cu-Cu-61-d-5.27 GB_type=CSL13 element=Cu system=Cu-61-d-5.27 distance=5.27 energy=-770.69715435 stress_kbar_3x3="_JSON [[-37.50075249, -2.42656832, -0.30433232], [-2.42656832, -40.96445857, 1.04643874], [-0.30433226, 1.04643876, -20.79611063]]" pbc="T T T"
Ti       2.44981986      -0.92932209       0.02225956      -0.00042648      -0.00027425       0.00038347
Ti       5.74688317       1.51940331       0.00564676      -0.00042918      -0.00048482       0.00180963
Ti       4.97505621      -0.83735108       1.37387304      -0.00130323       0.00065262      -0.00093264
Ti       4.56864898       3.74903431       1.35873536      -0.00251214       0.00105923      -0.00126890
Ti       7.08679435       3.83531536       2.61369175       0.00007739      -0.00069991       0.00166852
Ti       3.79305774       1.38586835       2.62939609      -0.00050591      -0.00075343       0.00103653
Ti       1.65028414      -0.46685707       2.87692126      -0.00003889      -0.00063669       0.00098041
Ti       2.12641585       3.60797803       2.86132802      -0.00105529      -0.00093291       0.00014298
Ti       4.71985738       3.63342867       4.16213646       0.00023362       0.00060163       0.00035334
Ti       4.80294414      -0.76600332       4.17767473       0.00027544       0.00010485       0.00008687
Ti       3.43437860       5.85405014       5.24984371      -0.00139785      -0.00083177       0.00061485
Ti       2.94328822       1.78590547       5.26508704      -0.00028299      -0.00130559       0.00122679
Ti       2.39742794      -0.96956651       5.75929252      -0.00031919      -0.00073295      -0.00026675
Ti       5.74784791       1.44733072       5.74309512      -0.00106334      -0.00109887      -0.00005185
Ti       4.27366866       3.75188666       6.95838255       0.00090761      -0.00017152       0.00093041
Ti       5.12877886      -1.09281779       6.97424371      -0.00082991       0.00043267       0.00038289
Ti       6.92211060       3.58460228       7.85870527      -0.00065159      -0.00049324      -0.00027527
Ti       3.66041213       1.11873678       7.87451815      -0.00063263      -0.00068681      -0.00032651
Ti       6.36849445       0.88402703       8.62089101       0.00039123       0.00011593       0.00052253
Ti       1.59765336      -0.71272668       8.63594554      -0.00019678      -0.00049454      -0.00042578
Ti       4.78615139       3.17935166       9.69460078      -0.00095035      -0.00040325       0.00027911
Ti       4.37504364      -0.93465718       9.71152402      -0.00062987      -0.00050133       0.00033707
Ti       3.16959828       5.41158813      10.49485028      -0.00051065      -0.00099554      -0.00028357
Ti       2.68870478       1.33696274      10.51021409      -0.00043021      -0.00067642       0.00004601
Ti       5.89256751       5.20003807      11.45729320      -0.00023632      -0.00013550       0.00037098
Ti       5.56876737       1.03577793      11.47341128       0.00019808       0.00022406      -0.00026618
Ti       0.58450112       0.91694559      12.39076372      -0.00009416      -0.00090820       0.00001146
Ti       3.85308729       3.37782233      12.37197413      -0.00018071       0.00022079       0.00135139
Ti       3.29592131       0.65904194      13.20763767       0.00003760      -0.00115569      -0.00012901
Ti       6.70190131       3.04298903      13.19253870      -0.00116950      -0.00080801      -0.00047534
Ti       5.08522290       5.36671763      14.30818223       0.00033245      -0.00033237      -0.00083332
Ti       6.11502046       0.42089908      14.32508438      -0.00048125       0.00029609      -0.00180264
Ti       4.53335951       2.64151070      14.99142720       0.00040274       0.00043928      -0.00150793
Ti       4.02984344      -1.41731362      15.00941107      -0.00045012      -0.00043482      -0.00125683
Ti       7.15234905       2.52065245      15.94592134       0.00094006      -0.00024427       0.00016426
Ti       2.61539422       0.78782700      15.96039307       0.00019069      -0.00081404       0.00006471
Ti       5.74121846       4.79862772      17.19316284       0.00116190       0.00088694      -0.00163346
Ti       5.29627346       0.70590681      17.20862366       0.00016838       0.00117842      -0.00189300
Ti       3.61082091       2.94374761      17.59955067       0.00076231       0.00032527      -0.00003463
Ti       0.33105005       0.48984807      17.61528190      -0.00035457      -0.00133929       0.00078668
Ti       2.87664076       0.51288827      18.76186180      -0.00061207      -0.00053602       0.00031060
Ti       6.79133361       2.60382885      18.74638127      -0.00173011       0.00085964      -0.00087252
Ti       4.92902552       5.20407750      20.06280891       0.00059261      -0.00193466      -0.00147006
Ti       1.63718881       2.74628962      20.07477311       0.00099679       0.00037726       0.00105808
Ti       4.39153332       2.41188837      20.24869627      -0.00001874       0.00318291      -0.00127564
Ti       3.91782543      -1.65966379      20.26820335       0.00297775       0.00261272      -0.00109785
Ti       6.89487175       2.50574191      21.53114388      -0.00200040       0.00034976      -0.00249361
Ti       2.75212141       0.55277381      21.55443092      -0.00048431      -0.00060139      -0.00022270
Ti       3.58478800       2.86145714      22.94169198       0.00115768      -0.00141366      -0.00178911
Ti       0.29382994       0.41766761      22.93619845       0.00086600      -0.00043049      -0.00196388
Ti       5.74027211       4.71954325      22.92498932       0.00013965       0.00233160       0.00013536
Ti       5.25172230       0.65120272      22.93347613      -0.00056652      -0.00011275       0.00174704
Ti       2.75795102       0.55088889      24.35711893       0.00172210      -0.00080546      -0.00026143
Ti       6.90090069       2.48745734      24.32257836       0.00042202      -0.00115666       0.00034582
Ti       3.92177638      -1.67814952      25.56301419      -0.00111816       0.00178535      -0.00161960
Ti       4.44402323       2.35555273      25.58397821      -0.00262786       0.00277807      -0.00139171
Ti       1.67970360       2.72990658      25.74653187       0.00275870       0.00102500       0.00307112
Ti       4.94169818       5.15284862      25.80823440       0.00006477      -0.00057359       0.00445205
Ti       2.96557089       0.47894483      27.16596898       0.00397858       0.00414389       0.00306444
Ti       6.79155829       2.56931298      27.15829160      -0.00130768      -0.00680593       0.00463541
Ti       0.36545480       0.51880982      28.10193756       0.00275965       0.00132234      -0.00218748
Cu       3.73092634       2.94730434      27.99984276       0.00133460      -0.00063500       0.00056162
Ti       5.51761737       0.59740554      28.64924003       0.00372158       0.00478363      -0.00417548
Ti       5.66042905       4.81906088      28.64218806       0.00054890      -0.00201592       0.00200367
Ti       3.00156547       4.98032723      29.86730298      -0.00119394      -0.00445955      -0.00604633
Ti       2.50454661       1.00928829      29.85425009       0.00312435       0.00584475      -0.00110095
Ti       4.73052720       2.77233028      30.46963007      -0.00415830       0.00049528      -0.00132265
Ti       4.13740773      -1.22447093      30.59922530       0.00169910       0.00394052       0.00184772
Ti       6.12655997       0.62469396      31.60242963      -0.00242974      -0.00169191      -0.00008653
Ti       5.16500756       5.44308121      31.46771691       0.00068844       0.00014388       0.00005624
Ti       3.42408202       0.74029447      32.48699668       0.00156430       0.00021207       0.00060975
Ti       6.73652540       3.29839476      32.46042557       0.00039029      -0.00237174       0.00130476
Ti       4.02091398       3.49047036      33.20437730      -0.00267954       0.00088751       0.00328147
Ti       5.06260382      -1.44050313      33.27419105       0.00216572       0.00465722       0.00160137
Ti       2.18843474      -1.16979637      34.38506704      -0.00068929      -0.00082478       0.00371045
Ti       5.59274292       1.20982814      34.38796704      -0.00089897      -0.00034459      -0.00004124
Ti       3.26819238       5.56506877      35.08231502      -0.00181928      -0.00237731      -0.00383717
Ti       2.76233256       1.56253773      35.06754809       0.00105004       0.00254009      -0.00043787
Ti       4.71637446       3.39261023      35.99084705       0.00183673       0.00140021      -0.00094217
Ti       4.55799344      -0.87878636      36.01014908      -0.00224589       0.00035594      -0.00078771
Ti       6.42312176       0.94927845      37.23796359      -0.00141372      -0.00095928       0.00153839
Ti       1.56381216      -0.59709393      37.23718053       0.00134853      -0.00105116      -0.00039412
Ti       6.97411351       3.71935780      37.67188634      -0.00021579      -0.00032612      -0.00162775
Ti       3.69340702       1.24742663      37.68042899      -0.00000640      -0.00159476      -0.00311787
Ti       4.41926773       3.71279964      38.78616701       0.00090083       0.00117303      -0.00229636
Ti       4.97397339      -0.95588814      38.80775624      -0.00118951       0.00123375      -0.00181858
Ti       5.68930622       1.47326637      40.09438422       0.00025157      -0.00080275       0.00525835
Ti       2.39965382      -0.97436297      40.11268196       0.00000799       0.00172469       0.00098913
Ti       3.40506797       5.88430779      40.31028555       0.00065414       0.00091814       0.00144268
Ti       2.93764270       1.80928570      40.32912151      -0.00050477      -0.00111299      -0.00051694
Ti       4.60838893       3.67529594      41.58353226      -0.00022616       0.00053530       0.00235270
Ti       4.85582475      -0.82472938      41.60085925       0.00388982      -0.00178305       0.00084774
Ti       2.10071210       3.59637108      42.94380925      -0.00007295       0.00005387       0.00228193
Ti       1.63083109      -0.48472812      42.96244472       0.00019228      -0.00124640       0.00099452
Ti       7.07259080       3.81719480      43.00549566      -0.00053166       0.00154753      -0.00021508
Ti       3.76414957       1.37948080      43.01820991      -0.00076619       0.00056296       0.00124763
Ti       4.59072177       3.71672496      44.36095071       0.00127093      -0.00191266      -0.00071244
Ti       4.92521309      -0.82395922      44.37585663      -0.00147621       0.00106956      -0.00105454
Ti       3.45507338       5.93538402      45.70747322      -0.00157291      -0.00119774      -0.00051291
Ti       2.99406082       1.85039493      45.72654481       0.00053421      -0.00196187      -0.00294705
