100
Lattice="4.4265 -2.555641 0.0 3.767997 6.526363 -0.031456 0.0 0.0 45.781652" Properties=species:S:1:pos:R:3:forces:R:3 job_name=CSL13-Zr-Zr-65-d-6.97 GB_type=CSL13 element=Zr system=Zr-65-d-6.97 distance=6.97 energy=-775.32900591 stress_kbar_3x3="_JSON [[-31.56478725, -1.97742236, 1.344951], [-1.97742238, -33.27294383, 0.45627895], [1.34495105, 0.45627891, -11.77437553]]" pbc="T T T"
Ti       2.47251827      -0.90635397       0.05503905       0.00358687       0.00047184      -0.00143793
Ti       5.76745519       1.54043264       0.03874447      -0.00238729      -0.00560557      -0.00065500
Ti       4.98801859      -0.81573693       1.40924658       0.00211075       0.00154944      -0.00500285
Ti       4.58731967       3.76668577       1.39407429      -0.00215715      -0.00539838      -0.00233840
Ti       7.09814766       3.85275018       2.64509895      -0.00054645      -0.00301010      -0.00817448
Ti       3.80637086       1.40298570       2.66105627       0.00075004       0.00045937      -0.00933888
Ti       1.66227303      -0.44846254       2.89727840      -0.00001058      -0.00109279      -0.00481957
Ti       2.14076419       3.62647244       2.88099429      -0.00000091      -0.00381694      -0.00668650
Ti       4.73052947       3.64840883       4.17901935      -0.00145761      -0.00459200      -0.00585650
Ti       4.81231146      -0.74943938       4.19477676      -0.00095371      -0.00010070      -0.00647981
Ti       3.44476058       5.86636456       5.25409042      -0.00395790      -0.00438145      -0.00233382
Ti       2.94924368       1.80142577       5.26980798      -0.00078124      -0.00401765      -0.00442024
Ti       2.40547961      -0.95470090       5.75780930      -0.00181709      -0.00242396       0.00365481
Ti       5.75647858       1.46165540       5.74176678      -0.00101525      -0.00245047       0.00152179
Ti       4.27582009       3.76431363       6.95203821      -0.00331466      -0.00358508       0.00331471
Ti       5.13942273      -1.08517423       6.96800878      -0.00090855      -0.00486274       0.00297903
Ti       6.92131478       3.59471220       7.83565821      -0.00121023      -0.00494619       0.00434464
Ti       3.67006674       1.12124478       7.85171923      -0.00372347      -0.00344587       0.00377200
Ti       6.37374014       0.88712801       8.59291589      -0.00174422      -0.00200798       0.00558350
Ti       1.59878033      -0.70689183       8.60848786      -0.00047837      -0.00298119       0.00571852
Ti       4.79165488       3.17606286       9.66518082      -0.00043016      -0.00126558       0.00152949
Ti       4.37205283      -0.93227016       9.68086001      -0.00072568      -0.00297332       0.00194898
Ti       3.17504802       5.40387024      10.44912824      -0.00156100       0.00079310       0.00101412
Ti       2.68340864       1.33701846      10.46534585       0.00109885      -0.00111282       0.00113048
Ti       5.89267778       5.19266419      11.40569584       0.00033247       0.00097270       0.00210735
Ti       5.56782084       1.02918616      11.42132038       0.00025823       0.00061303       0.00208448
Ti       0.58783393       0.90513262      12.34047648       0.00087809       0.00142722       0.00195270
Ti       3.84953313       3.37338986      12.32419030       0.00181865       0.00131487       0.00094874
Ti       3.29984200       0.64443446      13.14291760       0.00161920       0.00150099       0.00256954
Ti       6.69379275       3.03644487      13.12678348       0.00290297       0.00251537       0.00327578
Ti       5.08783587       5.35315312      14.24102596       0.00064785       0.00331104       0.00497817
Ti       6.11108108       0.41178364      14.25611422       0.00009769       0.00171422       0.00565359
Ti       4.53794108       2.63112868      14.92489578      -0.00074342       0.00271177       0.00335299
Ti       4.02840969      -1.42479227      14.94167987       0.00005746       0.00360049       0.00130676
Ti       7.15575881       2.50990463      15.86400031       0.00037490       0.00516598       0.00491686
Ti       2.61249974       0.78166780      15.87910038       0.00260783       0.00261759       0.00440058
Ti       5.74376666       4.79941267      17.11303936       0.00174148       0.00049769       0.00375789
Ti       5.30137069       0.70383066      17.12971810      -0.00122721       0.00496034       0.00672811
Ti       3.61522114       2.94756410      17.51390333      -0.00212576       0.00304861       0.00626177
Ti       0.33379433       0.48926719      17.53123938       0.00053858       0.00247695       0.00106273
Ti       2.87578037       0.52509043      18.67184339       0.00093496       0.00856963       0.00470448
Ti       6.79884155       2.61228300      18.65710938      -0.00367467      -0.00019178       0.00355082
Ti       4.92372799       5.21844191      19.97977455      -0.00319974       0.00016993      -0.00196438
Ti       1.64148876       2.76882451      19.99776085       0.00094606       0.00662526       0.00026475
Ti       4.39244672       2.43363971      20.14301170      -0.00004227       0.00142378      -0.00165866
Ti       3.92034193      -1.64383212      20.15986102       0.00000957       0.00315350      -0.00297600
Ti       6.88458165       2.54212570      21.43901136      -0.00568124      -0.00333131      -0.00387158
Ti       2.75394448       0.56900047      21.45409596       0.00340716       0.00911532      -0.00067058
Ti       3.57806476       2.89969352      22.80707623      -0.00114121      -0.00275048      -0.00412902
Ti       0.27900304       0.44924989      22.83704843       0.00405955       0.00536829       0.00019538
Ti       5.72222901       4.75376697      22.83143847       0.00100760       0.00176314       0.00085343
Ti       5.24478782       0.68255103      22.84955499       0.00084934       0.00393291      -0.00280366
Ti       2.72998677       0.59175261      24.22406070       0.00378970       0.00302776       0.00227807
Ti       6.89338959       2.53794295      24.21658094      -0.00037797       0.00136495       0.00224108
Ti       3.90071374      -1.62366493      25.49996898       0.00106239       0.00410987       0.00541437
Ti       4.38333448       2.46252591      25.46380004      -0.00068259      -0.00118803       0.00444971
Ti       1.61308729       2.79368578      25.70783938       0.00195452      -0.00424741      -0.00046341
Ti       4.91008562       5.24455985      25.68127965       0.00574339       0.00102629       0.00241619
Ti       2.88109751       0.53876490      26.99036107       0.00185178       0.00433494      -0.00272321
Ti       6.74351565       2.67808703      27.02684727       0.00490373       0.00382204       0.00164369
Ti       4.71195940      -1.98287307      28.12729599      -0.00004082      -0.00522731       0.00008848
Ti       3.62314716       3.02328533      28.04910805      -0.00401901       0.00570544       0.00037852
Ti       5.33338524       0.78026967      28.57581202       0.00400789       0.01201223      -0.00075018
Ti       5.69365150       4.83775929      28.57254105       0.00506791      -0.00122670      -0.00470191
Ti       7.28037008       2.51466426      29.83281887       0.00044654       0.00144193       0.00006747
Zr       2.60894700       0.89456089      29.89707855       0.00234489       0.00152767       0.00488771
Ti       4.65112165       2.82501107      30.68705828       0.00442856       0.00326885      -0.00247773
Ti       4.04636923      -1.42897276      30.81798754      -0.00037908      -0.00017134       0.00190639
Ti       6.04953928       0.56966771      31.56074084      -0.00259178       0.00713252      -0.00282811
Ti       5.12265158       5.38691120      31.59463888      -0.00549817       0.00130746      -0.00582491
Ti       3.41443929       0.66595938      32.68764437       0.00452718       0.00338799      -0.00082996
Ti       6.73412726       3.12069687      32.60014248       0.00091335      -0.00336935      -0.00343200
Ti       3.91438974       3.39418527      33.35603263      -0.00493674      -0.00427370      -0.00513457
Ti       0.66832510       1.03266285      33.41158246       0.00289542       0.00974661      -0.00304042
Ti       5.94764377       5.23985188      34.39054929       0.00460950       0.00158004      -0.00174888
Ti       5.65869886       1.10005240      34.43403256       0.00017736      -0.00065017      -0.00332447
Ti       3.28319913       5.47809698      35.23709991      -0.00640233      -0.00117457      -0.00141332
Ti       2.74723869       1.39947800      35.30313366       0.00222450       0.00534279      -0.00169418
Ti       4.79491367       3.27410348      36.08331376      -0.00335137      -0.00414325       0.00108086
Ti       4.47634870      -0.89874035      36.10054395       0.00499474       0.00204032       0.00477020
Ti       2.01761664       3.46682655      37.26883331      -0.00433214      -0.00334061      -0.00064665
Ti       1.63880891      -0.65913255      37.26054090       0.00187458       0.00456097       0.00328466
Ti       6.99488424       3.65013519      37.83275047       0.00309194       0.00120002       0.00353640
Ti       3.73984916       1.18939319      37.87385461      -0.00218196      -0.00491501       0.00000308
Ti       4.40723495       3.73797720      38.84527466       0.00020636      -0.00091683      -0.00238936
Ti       5.10396742      -1.01842147      38.85585835      -0.00728129       0.00195155      -0.00011473
Ti       5.75864740       1.47557241      40.12758433      -0.00366674      -0.01114399      -0.00349498
Ti       2.45073705      -0.96909933      40.13950859       0.00484097       0.00374582      -0.00167264
Ti       3.46843989       5.88465606      40.43757875       0.00178396       0.00533606      -0.00478249
Ti       2.98399734       1.81299606      40.45908313      -0.00613580      -0.01082407      -0.00388122
Ti       4.68238367       3.67666823      41.64099553       0.00082761      -0.00433298      -0.00233114
Ti       4.88001161      -0.78909697      41.65082830       0.00397466      -0.00375155      -0.00194860
Ti       2.14317216       3.61640842      42.97965831      -0.00446714      -0.00945290       0.00076771
Ti       1.66731653      -0.45619530      42.99439162       0.00116110       0.00357583      -0.00184934
Ti       7.10959202       3.84562638      43.08250355       0.00316789      -0.00121801      -0.00042647
Ti       3.80877013       1.39842963      43.10592964      -0.00317711      -0.01226236      -0.00189335
Ti       4.61758071       3.74760681      44.41183377      -0.00211814      -0.00656211       0.00276970
Ti       4.96171877      -0.80655948      44.42672576       0.00232438      -0.00045031      -0.00148792
Ti       3.47825441       5.95601472      -0.01804959      -0.00135338      -0.00370225      -0.00053240
Ti       3.01406395       1.87418410      -0.00160472      -0.00182235      -0.00550512       0.00003314
