100
Lattice="4.4265 -2.555641 0.0 3.767997 6.526363 -0.031456 0.0 0.0 45.781652" Properties=species:S:1:pos:R:3 job_name=CSL13-Cu-Cu-58-d-4.19 GB_type=CSL13 element=Cu system=Cu-58-d-4.19 distance=4.19 energy=-770.44304172 pbc="T T T"
Ti       2.47840696      -0.89600933       0.01549783
Ti       5.77440533       1.55087969      -0.00061808
Ti       4.99486368      -0.80562140       1.37775966
Ti       4.59394536       3.77684727       1.36213520
Ti       7.10488246       3.86151860       2.62133300
Ti       3.81144512       1.41211281       2.63701647
Ti       1.66608343      -0.44254840       2.87664316
Ti       2.14487831       3.63206219       2.86103209
Ti       4.73223858       3.65229249       4.16586095
Ti       4.81567731      -0.74688971       4.18124237
Ti       3.44450796       5.86979557       5.25363525
Ti       2.95271905       1.80204021       5.26934122
Ti       2.40668119      -0.95635979       5.76268219
Ti       5.75482943       1.46132836       5.74656001
Ti       4.27695237       3.76062288       6.95798446
Ti       5.13500428      -1.08590597       6.97380550
Ti       6.92442855       3.58989750       7.85622439
Ti       3.66469440       1.12271974       7.87258554
Ti       6.37220450       0.88481284       8.61836031
Ti       1.59767908      -0.70855944       8.63402175
Ti       4.78600859       3.17724757       9.69151033
Ti       4.37297811      -0.93559456       9.70693829
Ti       3.16958593       5.40683861      10.49131391
Ti       2.68637770       1.33381850      10.50659703
Ti       5.89076077       5.19311669      11.45263277
Ti       5.56548824       1.03076128      11.46673710
Ti       0.58201498       0.91144176      12.38643642
Ti       3.84818318       3.37015968      12.37152325
Ti       3.29363412       0.65007623      13.20462939
Ti       6.69537886       3.03561430      13.18853794
Ti       5.07723680       5.35942205      14.30468425
Ti       6.10609948       0.41435094      14.31952793
Ti       4.52920770       2.63696696      14.99241595
Ti       4.02024593      -1.42761115      15.00497608
Ti       7.14494781       2.51127020      15.94130996
Ti       2.60545372       0.78127554      15.95783973
Ti       5.72846226       4.79746287      17.19399231
Ti       5.27692813       0.70137105      17.19998559
Ti       3.59412684       2.93908593      17.59568614
Ti       0.31500142       0.48378769      17.61303341
Ti       2.85176384       0.51239288      18.76597100
Ti       6.77043754       2.60326633      18.74520720
Ti       4.89321645       5.20454062      20.07324475
Ti       1.60520427       2.74477744      20.07886780
Ti       4.35729906       2.41242419      20.24561703
Ti       3.88260118      -1.66361064      20.26062665
Ti       6.85132548       2.50719563      21.53345520
Ti       2.71019055       0.54592456      21.56834601
Ti       3.54667291       2.84465833      22.93965599
Ti       0.24275761       0.41391831      22.95581948
Ti       5.68611818       4.73894799      22.94316543
Ti       5.19080172       0.62959903      22.95973979
Ti       2.68376562       0.56998507      24.36897999
Ti       6.82730798       2.47714987      24.28437507
Ti       3.73092411      -1.68314997      25.54664455
Ti       4.39501731       2.47805357      25.57197057
Ti       5.95323655       0.17288279      25.82084654
Ti       4.81451873       5.27452620      25.75451305
Cu       3.07837876       0.39447023      27.05247260
Ti       6.76316814       2.65335934      27.08964996
Ti       0.48540120       0.66654085      27.99846908
Ti       3.53096041       2.94191134      28.08327286
Ti       5.28862437       0.84853552      28.64523072
Ti       5.75869273       4.79267697      28.59892730
Ti       2.96726080       5.08006967      29.80881133
Ti       2.65472430       0.83515000      29.80970277
Ti       4.63781173       2.78036209      30.60675500
Ti       4.10577883      -1.36155612      30.66673187
Ti       6.15394233       0.49036882      31.43157204
Ti       5.22240845       5.43125111      31.48314128
Ti       3.44801113       0.72858976      32.51131138
Ti       6.75426649       3.11755802      32.50674252
Ti       3.95497129       3.46172463      33.27625198
Ti       0.65068125       1.03608324      33.30986151
Ti       2.20957859      -1.25832014      34.32831029
Ti       5.67155387       1.11817794      34.30255421
Ti       3.28348576       5.50438151      35.14899463
Ti       2.76137396       1.42900361      35.17537274
Ti       4.80699350       3.28612005      35.99526298
Ti       4.49890197      -0.87741382      36.01278296
Ti       2.02290102       3.48976959      37.17038631
Ti       1.64441239      -0.63843423      37.18031561
Ti       7.00042916       3.67385065      37.75569328
Ti       3.73472649       1.21248479      37.77954386
Ti       4.40769108       3.75787664      38.76801236
Ti       5.09667241      -0.99478201      38.78272713
Ti       5.75873706       1.49065697      40.05432517
Ti       2.45163641      -0.95101949      40.06844669
Ti       3.46980951       5.90392143      40.37005403
Ti       2.98803846       1.82913115      40.38623448
Ti       4.68511409       3.69076021      41.57819135
Ti       4.88548224      -0.77420775      41.59113726
Ti       2.14822319       3.62975474      42.92406375
Ti       1.67096911      -0.44337041      42.93968973
Ti       7.11435313       3.86007696      43.03081382
Ti       3.81265002       1.41362054      43.04867374
Ti       4.62269318       3.75946726      44.36450048
Ti       4.96860673      -0.79199750      44.38034843
Ti       3.48500555       5.96930211      45.72459810
Ti       3.02269653       1.88577456      45.74017079
