100
Lattice="4.4265 -2.555641 0.0 3.767997 6.526363 -0.031456 0.0 0.0 45.781652" Properties=species:S:1:pos:R:3:forces:R:3 job_name=CSL13-Zn-Zn-49-d-0.01 GB_type=CSL13 element=Zn system=Zn-49-d-0.01 distance=0.01 energy=-767.90744337 stress_kbar_3x3="_JSON [[-36.14904595, -1.21288552, 0.73260269], [-1.21288552, -38.41070183, 1.03117713], [0.73260272, 1.03117713, -19.22052612]]" pbc="T T T"
Ti       2.49790190      -0.86519091       0.02733190      -0.00349683      -0.00117084      -0.00047891
Ti       5.78739948       1.58662148       0.01161296       0.00037018      -0.00320311      -0.00051642
Ti       5.01355568      -0.77465362       1.39120820      -0.00348534      -0.00242136       0.00192873
Ti       4.60785100       3.81035227       1.37545513      -0.00072745      -0.00395488       0.00223010
Ti       7.12041031       3.89289298       2.62281680      -0.00518938      -0.00847603       0.00507447
Ti       3.82853975       1.44234916       2.63867066      -0.00501123      -0.00827907       0.00524219
Ti       1.68207345      -0.41252187       2.88799243      -0.00047923      -0.00331315       0.00282943
Ti       2.16078169       3.66208293       2.87243487      -0.00255225      -0.00156549       0.00287336
Ti       4.75653155       3.67160798       4.17217959      -0.00388532      -0.00093422       0.00185739
Ti       4.81939285      -0.71541708       4.18802150       0.00076155      -0.00404274       0.00123221
Ti       3.45566677       5.88596686       5.24190808      -0.00278274      -0.00364536       0.00332089
Ti       2.96074396       1.82094020       5.25760295      -0.00244982      -0.00422921       0.00300010
Ti       2.41496171      -0.93634659       5.77051390      -0.00094070      -0.00202419      -0.00337639
Ti       5.76692933       1.47902081       5.75560008      -0.00186955      -0.00075748      -0.00344823
Ti       4.27119386       3.77773588       6.95473019       0.00158855      -0.00174099       0.00169148
Ti       5.15290771      -1.08186592       6.97071232      -0.00358801       0.00004480       0.00258211
Ti       6.92365470       3.59739703       7.84089363       0.00318535       0.00082654       0.00340320
Ti       3.67040077       1.12397298       7.85756065      -0.00105500       0.00206685       0.00343670
Ti       6.37520417       0.88951073       8.61683659       0.00190914      -0.00030180       0.00066955
Ti       1.59991622      -0.70343738       8.63097645      -0.00035280       0.00239150       0.00037080
Ti       4.79109573       3.17931391       9.68065807      -0.00075619       0.00137192       0.00559939
Ti       4.37612842      -0.93207274       9.69891529      -0.00029279      -0.00177380       0.00975492
Ti       3.17261060       5.40927842      10.47432403       0.00012261       0.00797749       0.00494473
Ti       2.68896666       1.33962736      10.49305492      -0.00136897       0.00166010       0.00425201
Ti       5.89235871       5.19989550      11.43405117       0.00366374       0.00271007       0.00506767
Ti       5.56930687       1.03512970      11.44822434      -0.00118318      -0.00037729       0.00130332
Ti       0.58922115       0.91311272      12.38164248       0.00004531      -0.00464603       0.00275209
Ti       3.85805853       3.37652006      12.35452666       0.00393424       0.00324990       0.00024619
Ti       3.30380808       0.64795280      13.18589324      -0.00413888      -0.00526909      -0.00797645
Ti       6.70033226       3.04655268      13.16634707       0.00559767       0.00928238      -0.00115130
Ti       5.09417544       5.35371788      14.27672722      -0.00501397       0.00130583      -0.00008907
Ti       6.11767738       0.41951666      14.27860493       0.00152128       0.00516901      -0.00257834
Ti       4.53898925       2.63440763      14.97091561       0.00297679       0.00971269       0.00622307
Ti       4.03845403      -1.40567156      15.01346172      -0.00323048      -0.00982188      -0.00170453
Ti       7.16559482       2.51020990      15.91070038       0.00846274       0.00740092       0.00550054
Ti       2.58660253       0.79798326      15.92772615      -0.00245140      -0.00275380       0.00863775
Ti       5.74143726       4.78703201      17.13898867       0.00073671      -0.00241851       0.00741382
Ti       5.30282873       0.69993874      17.13673596       0.00572031       0.00428116       0.00785254
Ti       3.62456007       2.94164487      17.57097436      -0.00370498       0.01021294       0.00257636
Ti       0.33945212       0.47934886      17.62776064      -0.00578649      -0.00512119       0.00527681
Ti       2.90713654       0.46805339      18.72058374      -0.00465358       0.00698148      -0.00315839
Ti       6.79087493       2.60448973      18.72426739       0.01094428       0.00287447      -0.00286751
Ti       4.91721855       5.14527583      20.00451811      -0.00343535       0.00947151       0.01522409
Ti       1.63149932       2.73167208      19.98529795      -0.00180746      -0.00653554       0.00299695
Ti       4.38221758       2.36987778      20.20136743      -0.00062637       0.00421717      -0.00016294
Ti       3.88875157      -1.66413433      20.26359597       0.00535721       0.00047829       0.00174160
Ti       6.85252641       2.42268683      21.51362740       0.00087579       0.00476789       0.01520839
Ti       2.65505724       0.58128333      21.49261700       0.00102034      -0.00414513       0.01110724
Ti       3.60667635       2.82504835      22.86788598       0.00166644       0.01877313      -0.00108733
Zn       4.61922059      -2.18811724      22.86653242       0.00306881       0.00005345      -0.00803163
Ti       5.64349118       4.74084194      22.87686746      -0.00600682      -0.01448612       0.00440841
Ti       5.22415571       0.54847178      22.88754966       0.01110946      -0.00355329       0.00224764
Ti       2.63940523       0.59305269      24.28217408      -0.00672807      -0.00194306      -0.01011370
Ti       6.87476687       2.41712276      24.22729910       0.00764701       0.00183599      -0.01435776
Ti       3.90808424      -1.65217924      25.47238162       0.01101719       0.00120206      -0.01291942
Ti       4.39479239       2.37269764      25.52509994       0.00336375       0.00531113      -0.00374368
Ti       1.64256290       2.74255851      25.78110696      -0.00013269      -0.00437095       0.00168373
Ti       4.93501293       5.14060372      25.74687031      -0.00164443       0.00390093      -0.00672730
Ti       2.94565874       0.46851751      27.05204504       0.00372474       0.00236599       0.00857680
Ti       6.78573835       2.62917599      27.01482000       0.00845809       0.00368832       0.00610110
Ti       0.36639454       0.50942832      28.10489551      -0.00425368      -0.00368557      -0.01070539
Ti       3.64703151       2.97138665      28.14619669      -0.00071046       0.01173790      -0.00229602
Ti       5.33311051       0.72130594      28.63620748       0.00881614       0.00353842      -0.00041366
Ti       5.74865854       4.81910216      28.60206047       0.00014173      -0.00188719       0.00043713
Ti       7.21444873       2.53564060      29.82271914       0.01253774       0.00672809      -0.00359220
Ti       2.58381703       0.85422451      29.83520161      -0.00284147       0.00105977      -0.00601458
Ti       4.57100071       2.69109700      30.74050333       0.00401593       0.01063669      -0.00725412
Ti       4.07707842      -1.34632826      30.71860583      -0.00117920      -0.00632597      -0.00219983
Ti       6.13901748       0.47680810      31.48990619       0.00380507       0.00716040       0.00607460
Ti       5.13728525       5.39799493      31.46005723      -0.00149016       0.00250199       0.00352654
Ti       3.35804857       0.69822346      32.56364363      -0.00309667      -0.00375403       0.00532958
Ti       6.71730951       3.12080293      32.55310664       0.00572150       0.01091780      -0.00068569
Ti       3.91056777       3.44459440      33.35988460       0.00543485       0.00467353      -0.00190089
Ti       0.62153910       0.99032401      33.36042656       0.00135410      -0.00368355      -0.00486753
Ti       5.93108058       5.27344321      34.31538803       0.00429254       0.00401179      -0.00455249
Ti       5.61062552       1.10409604      34.33045373      -0.00084407       0.00053358      -0.00180351
Ti       3.22740502       5.48269018      35.22152323      -0.00004899       0.00813023      -0.00856322
Ti       2.72529446       1.42672247      35.23290596      -0.00080984       0.00137871      -0.00904877
Ti       4.80610765       3.27081842      36.04453600      -0.00089625       0.00259090      -0.00687127
Ti       4.44904194      -0.87434733      36.05709494       0.00091996      -0.00188031      -0.01111954
Ti       6.42052819       0.95028545      37.18035385       0.00109067      -0.00148724      -0.00343825
Ti       1.62808877      -0.63335902      37.19841330      -0.00144396       0.00137408      -0.00199798
Ti       6.97757577       3.67922785      37.82522861       0.00200729       0.00017631      -0.00300184
Ti       3.71313032       1.21094170      37.83971060      -0.00208013      -0.00026443      -0.00281039
Ti       4.36860486       3.79234685      38.79203584      -0.00002358      -0.00131850       0.00049261
Ti       5.11662334      -0.98944936      38.80783943      -0.00380040      -0.00151374       0.00029792
Ti       5.76545251       1.51553595      40.06375502      -0.00041801      -0.00132997       0.00170950
Ti       2.44697639      -0.91909713      40.08041785      -0.00201682      -0.00132658       0.00171361
Ti       3.47347905       5.92768124      40.42121876      -0.00272102      -0.00565250      -0.00140317
Ti       2.98792529       1.85742611      40.43691418      -0.00491767      -0.00542006      -0.00122024
Ti       4.70839480       3.71477383      41.59327070      -0.00330039      -0.00128887      -0.00163407
Ti       4.88077950      -0.73553827      41.60894918      -0.00042081      -0.00449895      -0.00105722
Ti       2.16367068       3.66258335      42.93582323      -0.00312676      -0.00190051      -0.00456090
Ti       1.68109307      -0.40983156      42.95160563      -0.00084159      -0.00369902      -0.00502155
Ti       7.12561660       3.89543018      43.06128428      -0.00496589      -0.00917924      -0.00505758
Ti       3.82824832       1.44818657      43.07673548      -0.00605676      -0.00886665      -0.00467422
Ti       4.63501288       3.79450997      44.37970118      -0.00182031      -0.00357672      -0.00317068
Ti       4.98625743      -0.75906706      44.39538842      -0.00251216      -0.00325870      -0.00320294
Ti       3.50500911       6.00227219      45.73884288      -0.00647973      -0.00943723       0.00026597
Ti       3.03676881       1.92180003      45.75450496      -0.00504222      -0.01022501       0.00034168
