100
Lattice="4.4265 -2.555641 0.0 3.767997 6.526363 -0.031456 0.0 0.0 45.781652" Properties=species:S:1:pos:R:3:forces:R:3 job_name=CSL13-Cu-Cu-52-d-1.39 GB_type=CSL13 element=Cu system=Cu-52-d-1.39 distance=1.39 energy=-770.41195283 stress_kbar_3x3="_JSON [[-36.81268703, -2.27616886, 0.59395111], [-2.27616893, -41.02460322, 2.21739934], [0.5939511, 2.21739932, -22.04864481]]" pbc="T T T"
Ti       2.43459124      -0.97290070       0.02834037      -0.00100013      -0.00736180      -0.00116183
Ti       5.73451344       1.47299780       0.01286200      -0.00616310      -0.00444979      -0.00125086
Ti       4.95154677      -0.88479805       1.38448312      -0.00060400      -0.00050565      -0.00531955
Ti       4.55474656       3.69571760       1.36873600      -0.00083157      -0.00007251      -0.00627844
Ti       7.06912268       3.78239959       2.63794401      -0.00022378       0.00263741      -0.00035419
Ti       3.77147793       1.33518559       2.65313072       0.00069870       0.00109235      -0.00097527
Ti       1.63134207      -0.51843372       2.87703477      -0.00167365      -0.00086899       0.00087626
Ti       2.10696951       3.55716936       2.86067416      -0.00056549      -0.00079719       0.00117979
Ti       4.68534220       3.59222443       4.16416688      -0.00042997      -0.00120527       0.00227200
Ti       4.80061894      -0.82479842       4.18059860      -0.00215871      -0.00145968       0.00293763
Ti       3.41991098       5.81404754       5.27930729      -0.00035229      -0.00002319       0.00270873
Ti       2.93287390       1.74507940       5.29494059      -0.00110979       0.00078722       0.00301425
Ti       2.38852455      -1.01572036       5.74706004      -0.00129366      -0.00226612       0.00448584
Ti       5.72815842       1.40761996       5.73142670      -0.00103647      -0.00148325       0.00479959
Ti       4.29019468       3.70611666       6.96452442      -0.00239088      -0.00144017       0.00176440
Ti       5.10066750      -1.11310652       6.98000890      -0.00008176      -0.00336351       0.00073345
Ti       6.92641638       3.56460136       7.88515869      -0.00266461      -0.00252596       0.00006104
Ti       3.66060408       1.09845256       7.90009975      -0.00191305      -0.00369792       0.00045137
Ti       6.37088138       0.85729278       8.60903760      -0.00200902      -0.00290055       0.00178475
Ti       1.59416261      -0.73579993       8.62623871      -0.00156255      -0.00244679       0.00191729
Ti       4.78103301       3.16621099       9.70718994      -0.00052613      -0.00457376      -0.00271620
Ti       4.38921256      -0.95788744       9.72167219      -0.00233593      -0.00258529      -0.00392769
Ti       3.18242975       5.39362077      10.50944046      -0.00403676      -0.00398382      -0.00018236
Ti       2.69317424       1.32552295      10.52543091      -0.00158989      -0.00454537      -0.00045497
Ti       5.90053160       5.18553390      11.45055218      -0.00133490      -0.00425176       0.00141583
Ti       5.58174681       1.02004907      11.46594959      -0.00309924      -0.00406495       0.00187650
Ti       0.59474178       0.90573481      12.40246658      -0.00174861      -0.00333812      -0.00037483
Ti       3.86856208       3.36703726      12.39142787       0.00033469      -0.00403293      -0.00094741
Ti       3.31629281       0.64131979      13.21261930      -0.00151750      -0.00319576       0.00555884
Ti       6.70559145       3.03481311      13.19776291      -0.00045368      -0.00460862       0.00517708
Ti       5.10567753       5.35229490      14.30826233      -0.00207384      -0.00272857       0.00485431
Ti       6.12190862       0.41049843      14.32191474      -0.00066959      -0.00485589       0.00270566
Ti       4.55396617       2.63643197      15.01140367      -0.00216297      -0.00528437       0.00031401
Ti       4.04769914      -1.42913249      15.01882089      -0.00067655      -0.00324721       0.00080212
Ti       7.17907815       2.50037695      15.94460263      -0.00501441      -0.00063594       0.00459382
Ti       2.63077803       0.78056656      15.96610256       0.00280736      -0.00712621       0.00755626
Ti       5.75572117       4.79593156      17.20382337       0.00611591      -0.00035925       0.00461640
Ti       5.31558034       0.68755354      17.20923891      -0.00072208       0.00121467       0.00176702
Ti       3.62867982       2.93518751      17.61425890      -0.00061757      -0.00578199       0.00017188
Ti       0.34604280       0.48017088      17.61795286      -0.00190700      -0.00597500      -0.00014754
Ti       2.89049865       0.51237393      18.77993970      -0.00031399      -0.00117437      -0.00228922
Ti       6.80174540       2.59653838      18.73924762       0.00441700       0.00108733       0.00359168
Ti       4.95047307       5.22203109      20.10731682      -0.00317056      -0.00547921       0.00326351
Ti       1.65640358       2.72689248      20.11061687      -0.00288730      -0.00393993      -0.00155990
Ti       4.39786291       2.40028305      20.26577257       0.00372018       0.00838415      -0.00338496
Ti       3.92875491      -1.65150079      20.26837644       0.00511266      -0.00093083      -0.00360581
Ti       6.89335262       2.49103120      21.50689411       0.00094262       0.00704106      -0.00250483
Ti       2.79543160       0.53885332      21.58777635      -0.00256387      -0.00294528       0.00416328
Ti       3.58832644       2.91521205      22.89237379       0.00322808      -0.00001349       0.00152347
Ti       0.36320822       0.32849212      22.87098348      -0.00170945      -0.00432853      -0.00388580
Ti       5.82286135       4.70256963      22.92054455       0.00330344      -0.00117045       0.00599581
Ti       5.23675040       0.63692110      22.97753834       0.00234874       0.00143962       0.00522604
Cu       2.57610046       0.70304431      24.29531572      -0.00512862       0.00211615       0.00737374
Ti       6.93199719       2.52454520      24.29103948      -0.00109820       0.00837010       0.00212275
Ti       3.92136541      -1.47936587      25.35418914       0.00423651       0.00390507      -0.00405468
Ti       4.42468941       2.45820940      25.46164226       0.00279728       0.00261531      -0.00314647
Ti       1.71988072       2.81984034      25.80608277       0.00261913       0.00180583       0.00709639
Ti       4.88863459       5.28554953      25.78485368       0.00092439       0.00175899       0.00088928
Ti       2.97277347       0.54865183      27.03344620       0.00531919      -0.00091584       0.00105793
Ti       6.69967908       2.77403386      27.06549133       0.00099855       0.00365483      -0.00126168
Ti       0.40501865       0.64915755      27.99630440      -0.00257472       0.00519489      -0.00522806
Ti       3.64293778       3.05833737      28.00803654       0.00163164       0.00854835       0.00302062
Ti       5.36115342       0.79662156      28.62493982       0.00539643      -0.00101359      -0.00098986
Ti       5.70593718       4.95609585      28.62557730      -0.00095914       0.00499587       0.00014197
Ti       7.32050024       2.58623445      29.79602893       0.00674998      -0.00181862      -0.00691535
Ti       2.58519871       0.99456986      29.79923155      -0.00193263       0.00552975      -0.00582232
Ti       4.63708324       2.85150298      30.61137130      -0.00188444       0.00770751      -0.00616174
Ti       4.11358862      -1.24529385      30.62059282       0.00326562       0.00858579      -0.00514166
Ti       6.14499264       0.58894675      31.48497476       0.00110518       0.00604682       0.00318044
Ti       5.19372094       5.50985597      31.48188334      -0.00118874       0.00039060      -0.00089739
Ti       3.44249910       0.79320737      32.49759454       0.00307026       0.00205029      -0.00305838
Ti       6.73076997       3.23789064      32.48236704       0.00052093       0.00492701      -0.00037733
Ti       3.97292024       3.53098100      33.27194289       0.00174084       0.00418165      -0.00004403
Ti       5.06094913      -1.43699402      33.28670786      -0.00035175       0.00565975       0.00002114
Ti       2.20170356      -1.18209454      34.37349829       0.00189068       0.00376071       0.00179998
Ti       5.64955179       1.19036520      34.35790835       0.00003656       0.00169546      -0.00003794
Ti       3.27594104       5.57959749      35.10933494       0.00278825       0.00272346      -0.00735253
Ti       2.76501021       1.51135249      35.12899236       0.00085030       0.00270160      -0.00391704
Ti       4.74534691       3.36771528      36.00075210      -0.00154369       0.00358928      -0.00231794
Ti       4.54128319      -0.86284401      36.01749348       0.00407374      -0.00017977      -0.00292407
Ti       6.43882701       0.93929582      37.23015264      -0.00032052      -0.00125790      -0.00198449
Ti       1.60489500      -0.62059796      37.24526767      -0.00053732       0.00241012      -0.00263422
Ti       6.98818753       3.69005033      37.70706058       0.00089041       0.00287433      -0.00773409
Ti       3.71352331       1.23514870      37.72532235       0.00063109       0.00107968      -0.00880760
Ti       4.42537895       3.70365402      38.79657959       0.00291531      -0.00269602       0.00019795
Ti       5.00725576      -0.98352030      38.80868256      -0.00151019       0.00212827       0.00085991
Ti       5.71162557       1.44919522      40.10509506      -0.00534248      -0.00529627       0.00103688
Ti       2.41673691      -0.99849871      40.11899652      -0.00097583      -0.00630443       0.00123922
Ti       3.42469906       5.85951861      40.33535924       0.00425484       0.00549368      -0.00190432
Ti       2.95117630       1.78095908      40.35262225       0.00061374       0.00536993      -0.00217678
Ti       4.61880232       3.64395029      41.59796227      -0.00255313      -0.00137650      -0.00062821
Ti       4.86484647      -0.84967900      41.61353092       0.00023344      -0.00366077      -0.00096116
Ti       2.09964190       3.56221038      42.95287474       0.00125970       0.00178142       0.00327409
Ti       1.63044827      -0.51747273      42.96954890       0.00099705       0.00283286       0.00270848
Ti       7.07080523       3.78522470      43.02128335      -0.00043316      -0.00284961      -0.00043366
Ti       3.76463194       1.34350171      43.03675224      -0.00245365      -0.00205634      -0.00016305
Ti       4.58393754       3.67767293      44.37338986      -0.00096530      -0.00115500       0.00250055
Ti       4.91702776      -0.86545932      44.38875977      -0.00054904      -0.00147730       0.00254295
Ti       3.43786109       5.88832404      45.72669371       0.00568047       0.00606527      -0.00337256
Ti       2.98030691       1.80170796      45.74299140       0.00097794       0.00784880      -0.00345389
