100
Lattice="4.4265 -2.555641 0.0 3.767997 6.526363 -0.031456 0.0 0.0 45.781652" Properties=species:S:1:pos:R:3:forces:R:3 job_name=CSL13-Cu-Cu-65-d-6.97 GB_type=CSL13 element=Cu system=Cu-65-d-6.97 distance=6.97 energy=-770.47526525 stress_kbar_3x3="_JSON [[-36.18291846, -1.42980174, -0.88205849], [-1.42980175, -41.92006556, 2.24949382], [-0.88205845, 2.24949382, -21.16950159]]" pbc="T T T"
Ti       2.46173186      -0.89628108      -0.00072622      -0.00424257      -0.00202019       0.00204351
Ti       5.75603998       1.55441276      -0.01584998      -0.00464376      -0.00250739       0.00312249
Ti       4.97676219      -0.80664329       1.36888410      -0.00542254      -0.00023124       0.00049608
Ti       4.58246046       3.77348590       1.35409780      -0.00350360      -0.00302358      -0.00032088
Ti       7.09442883       3.85707675       2.62024215      -0.00408573      -0.00191136       0.00208712
Ti       3.80002761       1.40873260       2.63527638      -0.00340063      -0.00374159       0.00070353
Ti       1.65467758      -0.44638209       2.86329668      -0.00363537      -0.00106640      -0.00045391
Ti       2.13332758       3.62586571       2.84670152      -0.00278409      -0.00131672      -0.00124670
Ti       4.71694159       3.64982965       4.15367548      -0.00487183      -0.00057959       0.00089234
Ti       4.81310681      -0.75617541       4.17000230      -0.00130740      -0.00297321       0.00055305
Ti       3.43893460       5.86612286       5.25290272      -0.00166153      -0.00087095       0.00141184
Ti       2.94769134       1.79925836       5.26937595      -0.00201388      -0.00026522       0.00216477
Ti       2.40267964      -0.96328373       5.74582617      -0.00133866      -0.00162016      -0.00250390
Ti       5.74585708       1.45842562       5.73059113      -0.00315049      -0.00001028      -0.00157792
Ti       4.28266458       3.75321513       6.95034725       0.00077907      -0.00158610      -0.00201954
Ti       5.12494843      -1.08360965       6.96590783      -0.00234524       0.00055186      -0.00185855
Ti       6.92573937       3.59333307       7.85756715       0.00079338       0.00085258      -0.00064499
Ti       3.66472545       1.12373698       7.87280826      -0.00039251       0.00036257      -0.00083830
Ti       6.37345541       0.88475176       8.60521546      -0.00038663      -0.00050218      -0.00355262
Ti       1.59568312      -0.70811066       8.62114787      -0.00085534       0.00016560      -0.00325072
Ti       4.78566422       3.18178896       9.68834638       0.00025212       0.00005725      -0.00088966
Ti       4.38186591      -0.93543037       9.70415983       0.00070018       0.00050658      -0.00129379
Ti       3.17573349       5.40981558      10.48792964       0.00027152       0.00069396       0.00211112
Ti       2.68958880       1.34130530      10.50449397       0.00095420       0.00128908       0.00183999
Ti       5.89655558       5.19991525      11.43800412       0.00263520      -0.00015244       0.00299134
Ti       5.57446782       1.03394876      11.45520607       0.00055843       0.00091057       0.00354619
Ti       0.58978774       0.91560023      12.38606054       0.00093048       0.00026628       0.00184226
Ti       3.86245231       3.38033142      12.37063006       0.00236555       0.00027063       0.00290786
Ti       3.30841791       0.65378416      13.19657992       0.00116294       0.00166001       0.00085331
Ti       6.70138364       3.04606588      13.18065265       0.00184787       0.00109594       0.00066592
Ti       5.10033687       5.36078847      14.28986719       0.00220708      -0.00044018      -0.00051421
Ti       6.12012567       0.42150143      14.30446774       0.00314507       0.00044833      -0.00206958
Ti       4.54740541       2.64240243      14.99108793       0.00231011       0.00167617      -0.00418908
Ti       4.04425926      -1.41367567      15.00911375       0.00331625       0.00034205      -0.00245079
Ti       7.17611748       2.51222366      15.92838971       0.00372105       0.00103251      -0.00420420
Ti       2.61737798       0.79320400      15.94564316       0.00329055       0.00018907      -0.00196935
Ti       5.75633548       4.79833822      17.16775544       0.00254949       0.00225084      -0.00089399
Ti       5.31848472       0.70347710      17.18574372       0.00177091      -0.00210200      -0.00029152
Ti       3.63062782       2.94767980      17.60012171       0.00239931       0.00358041      -0.00171258
Ti       0.35013974       0.48859191      17.61511560       0.00668701       0.00288945      -0.00202143
Ti       2.90430588       0.50817637      18.74591288       0.00228459       0.00044244      -0.00278815
Ti       6.80523460       2.61016713      18.73143986       0.00542018      -0.00124441       0.00397337
Ti       4.95096690       5.20385926      20.04291042       0.00164044       0.00189526      -0.00209813
Ti       1.66202357       2.74844687      20.05510589       0.00387907       0.00413337      -0.00222164
Ti       4.41587678       2.41667674      20.24198436       0.00552695       0.00469610      -0.00323265
Ti       3.94413075      -1.65942311      20.26036553       0.00440724       0.00061738      -0.00233689
Ti       6.92819596       2.50448019      21.52401176       0.00400195       0.00036061      -0.00610720
Ti       2.77568675       0.55482718      21.54245566       0.00273605      -0.00092843       0.00301202
Ti       3.62648395       2.85927248      22.93615755       0.00167340       0.00394315       0.00151205
Ti       0.32207811       0.41922488      22.95128966       0.00509102      -0.00000518       0.00215282
Ti       5.76210872       4.72476701      22.89271236       0.00406704       0.00187009       0.00082871
Ti       5.29052922       0.64145863      22.90047141       0.00055017       0.00008118      -0.00360511
Ti       2.80991352       0.53755681      24.32609630       0.00374933      -0.00614991       0.00448981
Ti       6.92067953       2.51006200      24.29281771       0.00385670       0.00584080       0.00689259
Ti       3.97641425      -1.66593089      25.65959923      -0.00305193       0.00015227       0.00207882
Ti       4.41376048       2.40681287      25.63604519       0.00613581       0.00060246       0.00292995
Ti       1.67805041       2.72519144      25.76575913       0.00207524       0.00492700       0.00192036
Ti       4.99388155       5.20150551      25.73571449       0.00493388       0.00451474       0.00210747
Ti       2.92690611       0.52449629      27.12805126      -0.00283150      -0.00032463      -0.01269856
Ti       6.85602090       2.55201924      27.04521531       0.00863188       0.00204525       0.00699091
Ti       0.42684313       0.34577185      28.24533702      -0.00691360      -0.00662557      -0.00334845
Ti       3.70745645       3.00185093      28.26659944       0.00277673       0.01564219       0.00169728
Ti       5.36858243       0.61531293      28.62386204       0.00977003       0.00694800      -0.00418292
Ti       5.91223255       4.77802449      28.55772492       0.00321352      -0.00776189      -0.00315611
Ti       7.14997446       2.58320110      29.83870001      -0.00493254       0.00382986      -0.00171994
Cu       2.54919997       0.86211229      29.80592515       0.00066716      -0.00034867       0.00016079
Ti       4.56291996       2.54092221      30.77921884       0.00678437       0.00189666       0.00840488
Ti       4.16570830      -1.23955250      30.69478746      -0.00171006      -0.00140113       0.00159102
Ti       1.86064988       3.02998547      31.44891763       0.00657282       0.00867328       0.00335747
Ti       5.05873848       5.39843477      31.38861523      -0.00126488      -0.00706991       0.00166263
Ti       3.24056864       0.73487287      32.51143002      -0.00134911       0.00118181       0.00425976
Ti       6.67130205       3.22084378      32.52355967      -0.00465529      -0.00286855      -0.00296963
Ti       3.91669790       3.47686040      33.29932760       0.00328151       0.00691094      -0.00096664
Ti       0.56835718       0.97357662      33.36558289      -0.00377166      -0.00271388      -0.00173919
Ti       2.12327149      -1.19991602      34.31719286      -0.00568427      -0.00176661      -0.00090560
Ti       5.54884608       1.12053759      34.23867971      -0.00039761       0.00088430      -0.00598124
Ti       7.57714056       2.92760502      35.19018399      -0.00151335      -0.00327408      -0.00339692
Ti       2.70704301       1.48907159      35.17238013      -0.00013211       0.00082117      -0.00081717
Ti       4.79187835       3.28412966      36.00150806      -0.00083464       0.00088208      -0.00378924
Ti       4.42967539      -0.85546049      36.02971964      -0.00091141      -0.00124065       0.00479533
Ti       6.37190689       0.99321289      37.12758288      -0.00228323      -0.00038445       0.00455807
Ti       1.56971986      -0.61275489      37.16032345      -0.00280343      -0.00171058       0.00435081
Ti       6.94833807       3.71300940      37.78375949       0.00053039       0.00100605       0.00337708
Ti       3.65073693       1.21517679      37.79820595      -0.00295831      -0.00350966      -0.00054158
Ti       4.33300800       3.79497087      38.75266498      -0.00269944      -0.00113863       0.00012714
Ti       5.07583200      -0.97415398      38.77515629      -0.00146785      -0.00085094      -0.00096849
Ti       5.72079948       1.51437540      40.02982126      -0.00026233      -0.00337644      -0.00345940
Ti       2.40131184      -0.91439048      40.05471047      -0.00231612      -0.00174554      -0.00204308
Ti       3.42709365       5.92292667      40.38117578      -0.00227669      -0.00250973      -0.00284547
Ti       2.95022699       1.85777871      40.40447341      -0.00667301      -0.00105613      -0.00155402
Ti       4.66501914       3.70718940      41.56084756      -0.00479847      -0.00060568       0.00095852
Ti       4.84264557      -0.75106680      41.58108157      -0.00114765      -0.00318104      -0.00195992
Ti       2.12342807       3.64553993      42.90640043      -0.00158770      -0.00240224       0.00019088
Ti       1.64104898      -0.43156914      42.92388285      -0.00342821      -0.00008039       0.00015877
Ti       7.08528168       3.87476866      43.03326247      -0.00417374      -0.00249407       0.00229586
Ti       3.78688975       1.42792703      43.04589800      -0.00505342      -0.00331382       0.00062883
Ti       4.59683778       3.76653588      44.35519453      -0.00379636      -0.00041950       0.00267997
Ti       4.94960721      -0.78434000      44.36996058      -0.00392544      -0.00260542       0.00267016
Ti       3.46920382       5.97127667      45.71912363      -0.00327582      -0.00240350       0.00199266
Ti       3.00384329       1.88775803      45.73701251      -0.00398218      -0.00145812       0.00316204
