100
Lattice="4.4265 -2.555641 0.0 3.767997 6.526363 -0.031456 0.0 0.0 45.781652" Properties=species:S:1:pos:R:3:forces:R:3 job_name=CSL13-Cu-Cu-54-d-2.65 GB_type=CSL13 element=Cu system=Cu-54-d-2.65 distance=2.65 energy=-770.67416034 stress_kbar_3x3="_JSON [[-37.30515856, -2.49325507, -0.26126662], [-2.49325513, -41.09172277, 1.26599343], [-0.26126658, 1.26599344, -20.96518032]]" pbc="T T T"
Ti       2.40995143      -0.98577307       0.06138212      -0.00427609      -0.00473062       0.00384484
Ti       5.70882752       1.46124921       0.04650701      -0.00235822      -0.00592212       0.00301522
Ti       4.94132483      -0.90157295       1.39439148      -0.00252354      -0.00251458       0.00184259
Ti       4.52029124       3.69343243       1.37913249      -0.00284496      -0.00075603       0.00230156
Ti       7.04577485       3.77120709       2.62333962      -0.00267763      -0.00065272       0.00077894
Ti       3.75018822       1.32307385       2.63840157      -0.00293131       0.00171407       0.00170583
Ti       1.61289689      -0.52949168       2.90340910      -0.00309882      -0.00725016       0.00617589
Ti       2.08283368       3.54896668       2.88662789      -0.00491966      -0.00403332       0.00803370
Ti       4.68268715       3.56910016       4.17687831      -0.00133174      -0.00300509       0.00324371
Ti       4.75968169      -0.82601233       4.19341147      -0.00155527      -0.00107265       0.00351067
Ti       3.39380203       5.79116920       5.25939789      -0.00386848      -0.00565877      -0.00381839
Ti       2.90480977       1.72345915       5.27567464      -0.00525732      -0.00107893      -0.00256846
Ti       2.35682851      -1.02823585       5.77351389      -0.00603810      -0.00412310      -0.00284296
Ti       5.71124347       1.38670139       5.75830065      -0.00208053      -0.00326395      -0.00214850
Ti       4.23971411       3.69305133       6.96911425      -0.00524980      -0.00406386      -0.00091556
Ti       5.09394296      -1.15030419       6.98477832       0.00126672      -0.00664910      -0.00194732
Ti       6.89021213       3.52922769       7.86615366      -0.00435067      -0.00654337      -0.00452574
Ti       3.62579666       1.06106003       7.88136308      -0.00277868      -0.00873805      -0.00467583
Ti       6.33593132       0.82939220       8.62768779      -0.00629045      -0.00561293       0.00096431
Ti       1.56564744      -0.76839494       8.64353582      -0.00290927      -0.00697182       0.00202113
Ti       4.75831389       3.12269584       9.70227778      -0.00190812      -0.00762997      -0.00270638
Ti       4.34464014      -0.98847851       9.71772758      -0.00392054      -0.00439212      -0.00146918
Ti       3.14019362       5.35493455      10.49813111      -0.00483502      -0.00471309       0.00178900
Ti       2.65934088       1.28343554      10.51490832      -0.00083333      -0.00724782      -0.00102230
Ti       5.86690010       5.14577797      11.46350325      -0.00212019      -0.00371701       0.00510541
Ti       5.54261595       0.97978900      11.48118541      -0.00151025      -0.00504298       0.00510037
Ti       0.55978124       0.85787785      12.39052993      -0.00080746      -0.00617645      -0.00136800
Ti       3.82756030       3.32546222      12.37525492      -0.00190972      -0.00384442       0.00076434
Ti       3.26753534       0.60668881      13.21118148      -0.00483677      -0.00346860      -0.00232225
Ti       6.67995734       2.98558407      13.19434469       0.00383189      -0.00755364      -0.00126189
Ti       5.06786902       5.31075697      14.32578580      -0.00350428      -0.00309192       0.00408640
Ti       6.09482491       0.36953214      14.34031933       0.00081442      -0.00022029       0.00434016
Ti       4.51084127       2.58516810      14.98452241      -0.00151277      -0.00100607       0.00508839
Ti       4.01191372      -1.47300445      15.00305503      -0.00121593      -0.00558188       0.00264947
Ti       7.12444886       2.47932157      15.94953048      -0.00093903       0.00022438       0.00476709
Ti       2.60979141       0.73064825      15.96566494       0.00324145      -0.00232627       0.00742916
Ti       5.73912374       4.75097411      17.22043429       0.00113237      -0.00196139       0.00739066
Ti       5.29184780       0.66564500      17.23926227       0.00567986       0.00310056       0.00680697
Ti       3.60219577       2.90118797      17.59255314       0.00073260       0.00380047      -0.01013209
Ti       0.31965193       0.43788005      17.60316635      -0.00040230      -0.00003185      -0.00791917
Ti       2.85243377       0.48670117      18.76546174      -0.00596482       0.00141065      -0.00210554
Ti       6.80931841       2.55860831      18.75826299       0.00887394      -0.00211891      -0.00311385
Ti       4.91509658       5.18386750      20.11836545       0.01333959       0.00931292      -0.00798351
Ti       1.65854085       2.71093806      20.13036148       0.00442110       0.00673807      -0.00103069
Ti       4.40054504       2.37673473      20.20940714      -0.00610808      -0.00044024      -0.00289821
Ti       3.90580516      -1.69065136      20.24383501       0.00157005       0.00299058      -0.01180225
Ti       6.87280916       2.49932638      21.57858125       0.00440787      -0.00567374       0.00399201
Ti       2.77961533       0.48495884      21.57841840       0.00991748       0.01686785       0.00347172
Ti       3.57612357       2.82956589      22.81689463       0.00334472      -0.00569551       0.00892089
Ti       0.34165323       0.33451023      22.86694355      -0.00050724       0.00908268       0.00771940
Ti       5.77193135       4.67599253      22.94767194       0.00199821       0.00063526       0.00550281
Ti       5.25993943       0.59206383      23.04162424      -0.00363817       0.00751666       0.00260592
Ti       2.69647436       0.52889415      24.41902153       0.00697197       0.01748798       0.00037613
Ti       7.03731294       2.42601704      24.40434199      -0.00359473      -0.00140639      -0.00450732
Cu       4.03029091      -1.65041878      25.27860963       0.00888341       0.01533530      -0.00381403
Ti       4.44485002       2.44300045      25.34404412       0.00235340      -0.00464953       0.00012096
Ti       5.96578337       0.22083908      25.88770996       0.00112507       0.00669848      -0.00291008
Ti       5.16789232       5.08060875      25.86505782       0.00629713       0.00545437       0.00171044
Ti       3.29450417       0.38294590      27.14536261       0.00362051       0.00832575      -0.00345422
Ti       6.56454290       2.93496825      27.10235138      -0.00477160      -0.00046403       0.00267028
Ti       0.59473104       0.72285914      27.73263536       0.00890413       0.01078394      -0.00009219
Ti       3.76445700       3.26090144      27.83185451       0.00278534      -0.00453923      -0.00118683
Ti       5.46271371       0.82569378      28.72860036       0.00889079       0.00027348       0.00544512
Ti       5.73853696       5.10256972      28.83425311       0.00089929       0.00610527       0.00444186
Ti       3.04087990       5.20805848      29.73872169      -0.00056266       0.00373684      -0.00100692
Ti       2.58736459       1.23461202      29.73870048      -0.00170394       0.00347346      -0.00126765
Ti       4.68397206       3.02139655      30.50876826       0.00309433       0.00866527      -0.00878355
Ti       4.29590358      -1.12294987      30.46475859       0.00477202       0.00312204      -0.00902452
Ti       6.22366387       0.73641637      31.61776487       0.00279211       0.00342326      -0.00438439
Ti       5.21425904       5.66052681      31.62158129       0.00674866       0.00442454      -0.00191698
Ti       3.53774692       0.93374349      32.35815103      -0.00120706      -0.00176490      -0.00360465
Ti       6.79943262       3.46175577      32.31961275      -0.00166125       0.00437997      -0.00966013
Ti       4.16253123       3.58060267      33.24514806       0.00329149       0.00232846       0.00807090
Ti       5.00046531      -1.23834676      33.25504010       0.00424158       0.00919116       0.00482826
Ti       2.27150071      -1.12066108      34.49897426       0.00024030      -0.00372772      -0.00085627
Ti       5.60995659       1.30154695      34.46773023       0.00198781      -0.00157933       0.00374946
Ti       3.31133260       5.70063919      34.92929702      -0.00099962      -0.00151732       0.00004308
Ti       2.82224338       1.64626055      34.95521825       0.00109580       0.00977108      -0.00255377
Ti       4.60342170       3.49667140      36.04419157       0.00057401       0.00143950       0.00119025
Ti       4.68778142      -0.90575583      36.05318176       0.00217276      -0.00300020       0.00616938
Ti       2.02076633       3.48672611      37.33780011       0.00238027       0.00037052       0.00472281
Ti       1.54460918      -0.59268368      37.35416490       0.00367439       0.00023078       0.00232164
Ti       6.98508099       3.71272398      37.57747338      -0.00455560      -0.00191370      -0.00079885
Ti       3.68794522       1.26093227      37.59428803      -0.00230607       0.00250272       0.00019251
Ti       4.47056907       3.64474139      38.83774998       0.00037541      -0.00298651      -0.00407681
Ti       4.89558963      -0.94838579      38.85122136      -0.00119287       0.00470799      -0.00451104
Ti       5.67710412       1.42729728      40.17747092      -0.00306833      -0.00402900      -0.00313964
Ti       2.37737805      -1.01741158      40.19330905      -0.00128635      -0.00397946      -0.00214503
Ti       3.38269377       5.84439382      40.27466773       0.00012672       0.00105706      -0.00197165
Ti       2.92192742       1.75829885      40.29296607       0.00127511       0.00009600      -0.00537483
Ti       4.55571266       3.63667524      41.61193069      -0.00167797       0.00403478       0.00117320
Ti       4.85588671      -0.88868925      41.62787288      -0.00175475       0.00022414       0.00238686
Ti       2.06406554       3.54612621      43.00162383      -0.00495879      -0.00595481      -0.00130332
Ti       1.60233592      -0.53770402      43.01845898      -0.00166831      -0.00236631      -0.00073334
Ti       7.04254090       3.76200001      42.99328179       0.00334320       0.00208616      -0.00175093
Ti       3.72646932       1.32557016      43.00805802      -0.00112442       0.00130431       0.00048599
Ti       4.56845308       3.65370040      44.38165646      -0.00048474      -0.00313194       0.00010851
Ti       4.87492130      -0.87304523      44.39785290      -0.00285590       0.00117739      -0.00289859
Ti       3.41528254       5.87447712      45.70963185      -0.00344217       0.00598395      -0.00265016
Ti       2.95270262       1.79048273      45.72623658       0.00120242      -0.00000434      -0.00422044
