100
Lattice="4.4265 -2.555641 0.0 3.767997 6.526363 -0.031456 0.0 0.0 45.781652" Properties=species:S:1:pos:R:3:forces:R:3 job_name=CSL13-Zn-Zn-53-d-1.39 GB_type=CSL13 element=Zn system=Zn-53-d-1.39 distance=1.39 energy=-768.20774476 stress_kbar_3x3="_JSON [[-35.04109764, -2.89733916, 0.44369655], [-2.8973392, -38.56626691, 1.25951634], [0.44369659, 1.25951634, -19.77791647]]" pbc="T T T"
Ti       2.49683459      -0.86489466       0.02675174      -0.00454643      -0.00978999      -0.00298744
Ti       5.78835718       1.58562537       0.01103063      -0.00607618      -0.00891572      -0.00310011
Ti       5.01205848      -0.77497368       1.38990397      -0.00658825      -0.01006363      -0.00006326
Ti       4.60870468       3.80888170       1.37419863      -0.00560111      -0.01062034       0.00001214
Ti       7.11916839       3.89128281       2.62528638      -0.00232576      -0.00747711       0.00143480
Ti       3.82825650       1.44034473       2.64081904      -0.00554136      -0.00600445       0.00166266
Ti       1.68142942      -0.41322925       2.88553497      -0.00422189      -0.00781199       0.00025817
Ti       2.16076964       3.66085562       2.86997048      -0.00487437      -0.00764277       0.00013012
Ti       4.75302278       3.67230849       4.17042939      -0.00664587      -0.00580089       0.00222343
Ti       4.82162804      -0.71819333       4.18632354      -0.00145596      -0.00892834       0.00146686
Ti       3.45599301       5.88600487       5.24449589      -0.00260850      -0.00257432       0.00810375
Ti       2.96074914       1.82074058       5.25980646      -0.00069714      -0.00345323       0.00865585
Ti       2.41629348      -0.93780146       5.76607972      -0.00259629      -0.00518776       0.00202665
Ti       5.76582384       1.47936028       5.75048394      -0.00344061      -0.00440864       0.00238178
Ti       4.27362868       3.77580899       6.95427195       0.00500891      -0.00523764       0.00330994
Ti       5.15095466      -1.08145521       6.97048527      -0.00641235       0.00181481       0.00283657
Ti       6.92454480       3.59751514       7.84368178       0.00198018       0.00007318       0.01010450
Ti       3.67105379       1.12474678       7.85911981      -0.00010553       0.00205981       0.01027922
Ti       6.37672495       0.88898097       8.61468165       0.00148830      -0.00057578       0.00290535
Ti       1.59946182      -0.70384354       8.62936209      -0.00186809       0.00213427       0.00346668
Ti       4.78996384       3.17887342       9.68251282      -0.00202270       0.00366255       0.00453677
Ti       4.37625024      -0.93284567       9.69998353       0.00138412      -0.00136275       0.00308629
Ti       3.17398902       5.40905990      10.47839669       0.00090940       0.00257693       0.00741443
Ti       2.68769883       1.33825998      10.49380547       0.00322377       0.00136612       0.00676417
Ti       5.89420975       5.19596665      11.43354660       0.00112585      -0.00120600       0.00461346
Ti       5.56923993       1.03220771      11.45011958      -0.00155024       0.00411977       0.00343581
Ti       0.58552020       0.91157333      12.38198369      -0.00153076       0.00148822       0.00400140
Ti       3.85495161       3.37347841      12.36070214       0.00046149       0.00264571       0.00563241
Ti       3.30375467       0.64613296      13.18819061       0.00097657      -0.00102185       0.00532714
Ti       6.69406501       3.04126477      13.17273337      -0.00024486       0.00377590       0.00552011
Ti       5.08588212       5.35297544      14.27064238      -0.00136609      -0.00172009       0.00529626
Ti       6.11072498       0.41435518      14.28878889      -0.00073912      -0.00304701       0.00270221
Ti       4.53582682       2.63347684      14.98498625      -0.00042147       0.00407064       0.00115026
Ti       4.02867671      -1.41860820      15.00969856      -0.00034342      -0.00358517      -0.00071880
Ti       7.16549031       2.49691586      15.92343589       0.00277124      -0.00047660      -0.00160516
Ti       2.58446277       0.78384440      15.93265230       0.00223172      -0.00128351      -0.00120228
Ti       5.71587630       4.77405880      17.14917307       0.00193049       0.00269099      -0.00227681
Ti       5.29639249       0.68065800      17.16968651       0.00185210      -0.00588821       0.00127567
Ti       3.60025423       2.91851822      17.58761453       0.00227331       0.00897645       0.00078065
Ti       0.32088913       0.47181242      17.61944371       0.00010156       0.00240538      -0.00368399
Ti       2.87936613       0.47014527      18.71635619       0.00039056       0.00083787       0.01176640
Ti       6.76815442       2.58448872      18.71760437       0.00348752       0.00794658       0.00461386
Ti       4.88624597       5.17333101      20.03884811       0.00902499       0.01616938       0.00294031
Ti       1.63409381       2.73335413      20.06451244       0.00922949       0.00913778       0.00027999
Ti       4.39674076       2.38800652      20.23725426      -0.00073479      -0.00264563      -0.00230273
Ti       3.88498789      -1.69605023      20.27133506      -0.00129117       0.00735188      -0.00453053
Ti       6.86923126       2.48152041      21.52836451       0.00618765       0.01726540      -0.00755897
Ti       2.71741698       0.51981633      21.49541652       0.01035559       0.00606112      -0.00864816
Ti       3.51444254       2.83297205      22.86438991       0.00810005       0.00599875      -0.00076727
Ti       0.30018061       0.40021257      22.90350085       0.00824460      -0.00119328      -0.00362902
Ti       5.72724073       4.69633465      22.87260290       0.01216326       0.00854479      -0.00835609
Ti       5.19401264       0.65404743      22.87334437      -0.00508452      -0.00065934      -0.00208063
Ti       2.74179428       0.53268128      24.27304632       0.00663847       0.01083486      -0.00309077
Zn       6.95474733       2.46334253      24.25772446      -0.00278305       0.00420824      -0.00178831
Ti       3.92821863      -1.62949003      25.53040680       0.00189924       0.00761751      -0.00799005
Ti       4.42299595       2.38831695      25.51121299      -0.00169027       0.00563984       0.00294610
Ti       1.70059080       2.72178887      25.75772001      -0.00210026      -0.00237708       0.00891643
Ti       4.92698354       5.23861299      25.75166645      -0.00295696       0.00629732       0.00340708
Ti       2.92712523       0.50542890      27.06994894       0.00804485       0.00978692       0.01234167
Ti       6.78055715       2.62469012      26.99255795       0.00835600       0.00743602       0.00982733
Ti       0.34274861       0.48588481      28.11777742       0.01531548      -0.00442243       0.00343420
Ti       3.62425869       3.00494401      28.11522630      -0.00199750      -0.00379621      -0.00583627
Ti       5.34146194       0.72385179      28.57345171      -0.00065599       0.00778162       0.00841675
Ti       5.75255888       4.80885535      28.57731673       0.01130994       0.00835786      -0.00194102
Ti       7.18755402       2.54824273      29.80858859       0.01624328       0.00349404      -0.00167521
Ti       2.56975980       0.84104027      29.83726970       0.00602661      -0.00073099      -0.00831345
Ti       4.54770603       2.67191140      30.73028470       0.00882239       0.01253851      -0.00052315
Ti       4.06637915      -1.34329550      30.72119247       0.00749573      -0.00219108       0.00279992
Ti       6.12864200       0.47961967      31.45770077      -0.00418310      -0.00127508       0.00608511
Ti       5.11877944       5.38092383      31.43795630       0.01228577       0.00893292       0.00693042
Ti       3.34066226       0.69888788      32.55384211       0.00006860       0.00134360       0.00354403
Ti       6.69813914       3.11604371      32.53936863       0.00345240       0.00613285       0.00716353
Ti       3.90306820       3.44565355      33.34894543       0.00290327       0.00615985       0.00060427
Ti       0.61392770       0.97833037      33.35256669      -0.00320420       0.00747030      -0.00114657
Ti       5.93108853       5.27191364      34.30512243      -0.00319976       0.00367624      -0.00005052
Ti       5.60462255       1.09369503      34.31498755      -0.00279167       0.00889228      -0.00111007
Ti       3.22128049       5.48099966      35.21257435      -0.00310947       0.00248681      -0.00736804
Ti       2.72112905       1.42298031      35.22565784      -0.00415234       0.00548699      -0.01332808
Ti       4.80638299       3.26744371      36.03566222      -0.00406057       0.00480916      -0.00882766
Ti       4.44743945      -0.87758963      36.05061259      -0.00151794       0.00057276      -0.00606083
Ti       6.42068999       0.95008716      37.17147873      -0.00145739       0.00266502      -0.00283910
Ti       1.62627496      -0.63529727      37.19451959      -0.00675764      -0.00457261      -0.00324100
Ti       6.97828731       3.67851598      37.81925606      -0.00312754      -0.00313211      -0.00290736
Ti       3.71179086       1.21045428      37.83342892      -0.00419002       0.00003190      -0.00042850
Ti       4.36958539       3.78989272      38.78828817      -0.00193691      -0.00497692      -0.00087985
Ti       5.11488743      -0.98902929      38.80475057      -0.00463055      -0.00470338      -0.00321667
Ti       5.76400188       1.51592257      40.06322680      -0.00145452      -0.00775616      -0.00380711
Ti       2.44714592      -0.92085588      40.08086858      -0.00390021      -0.00431957      -0.00632701
Ti       3.47379757       5.92697128      40.41792882      -0.00393997      -0.00616203      -0.01019258
Ti       2.98707250       1.85682167      40.43351107      -0.00303552      -0.00497661      -0.00961421
Ti       4.70642277       3.71487646      41.59324132      -0.00657956      -0.00756552      -0.00731556
Ti       4.88178415      -0.73697526      41.60922043      -0.00294386      -0.00801050      -0.00739772
Ti       2.16256983       3.66251303      42.93656254      -0.00490757      -0.00886075      -0.00651106
Ti       1.68134018      -0.41085473      42.95230971      -0.00582726      -0.00891160      -0.00625744
Ti       7.12465410       3.89362590      43.05989189      -0.00443003      -0.00633078      -0.00502652
Ti       3.82687790       1.44656226      43.07561695      -0.00349499      -0.00658612      -0.00682941
Ti       4.63497839       3.79367170      44.38003058      -0.00677817      -0.01023561      -0.00599112
Ti       4.98572263      -0.75950245      44.39564706      -0.00588345      -0.00991120      -0.00548997
Ti       3.50389742       6.00064828      45.73943565      -0.00495370      -0.00740570      -0.00097023
Ti       3.03604803       1.91980414      45.75516420      -0.00419794      -0.00803559      -0.00100927
