100
Lattice="4.4265 -2.555641 0.0 3.767997 6.526363 -0.031456 0.0 0.0 45.781652" Properties=species:S:1:pos:R:3:forces:R:3 job_name=CSL13-Zr-Zr-63-d-5.77 GB_type=CSL13 element=Zr system=Zr-63-d-5.77 distance=5.77 energy=-775.54931691 stress_kbar_3x3="_JSON [[-31.71227153, -2.53223772, 0.70604071], [-2.53223774, -33.09816822, 0.41703921], [0.7060407, 0.41703916, -12.68036359]]" pbc="T T T"
Ti       2.47111618      -0.90689659       0.04461937      -0.00418663      -0.00716964      -0.00878660
Ti       5.76475633       1.54201167       0.02816551      -0.00352897      -0.00480188      -0.00801106
Ti       4.98350458      -0.81685439       1.40460352      -0.00009468      -0.00112405      -0.00345683
Ti       4.58641324       3.76359367       1.38879312       0.00247461      -0.00205374      -0.00226902
Ti       7.09697067       3.84971323       2.64435858       0.00022204       0.00032594       0.00171931
Ti       3.80335875       1.40065023       2.66014478       0.00177952       0.00133811       0.00167248
Ti       1.66006219      -0.45138942       2.89005007      -0.00373149      -0.00563381      -0.00444741
Ti       2.13831814       3.62305750       2.87383282      -0.00148421      -0.00416581      -0.00339220
Ti       4.72492934       3.64612035       4.17426262      -0.00592622      -0.00182799      -0.00651782
Ti       4.81334799      -0.75574695       4.18998847      -0.00036788      -0.00506945      -0.00602764
Ti       3.44292318       5.86393435       5.25783703      -0.00327958      -0.00264042       0.00179990
Ti       2.94828770       1.79835827       5.27337793      -0.00059724      -0.00413992       0.00310341
Ti       2.40492731      -0.95969513       5.75269549      -0.00172766      -0.00260714      -0.00062059
Ti       5.75272673       1.45845370       5.73681866      -0.00187737      -0.00282206      -0.00060960
Ti       4.27978453       3.75888824       6.95063112      -0.00111674      -0.00374165       0.00212819
Ti       5.13317593      -1.08476752       6.96667969      -0.00290579      -0.00201905       0.00149895
Ti       6.92181302       3.59628779       7.84247657      -0.00223279      -0.00359911       0.00563570
Ti       3.67163579       1.12195643       7.85833007      -0.00314052      -0.00169940       0.00611074
Ti       6.37512806       0.88532858       8.59026816      -0.00318865       0.00003643       0.00006563
Ti       1.59714126      -0.70668372       8.60557164       0.00222304      -0.00172826       0.00133059
Ti       4.78719989       3.18371125       9.67190790       0.00472678       0.00000058       0.00217731
Ti       4.38060582      -0.93238339       9.68797614       0.00201189       0.00232888       0.00119984
Ti       3.18139808       5.41103299      10.45736243      -0.00218905       0.00268041       0.00376342
Ti       2.68606733       1.34571460      10.47358302       0.00293808      -0.00056639      -0.00029426
Ti       5.89519263       5.20424079      11.40045096       0.00109247       0.00247507       0.00546358
Ti       5.57673294       1.03679346      11.41610977      -0.00066843       0.00479335       0.00532127
Ti       0.59331121       0.92111473      12.35623590       0.00015740       0.00326408      -0.00120756
Ti       3.85988635       3.38600269      12.34016310       0.00182911       0.00353022      -0.00327983
Ti       3.31568569       0.65415581      13.14807313      -0.00207102       0.00432275       0.00166395
Ti       6.69356711       3.05475340      13.13192361       0.00426964       0.00168720       0.00421140
Ti       5.10099301       5.36520797      14.23046728       0.00027067       0.00242093       0.00598481
Ti       6.11289164       0.43024918      14.24630841       0.00846815       0.00285418       0.00576260
Ti       4.55086770       2.65262054      14.94928558       0.00214887       0.00636339       0.00302379
Ti       4.03914606      -1.40133581      14.96696609      -0.00208267       0.00364195      -0.00179773
Ti       7.18396720       2.51242430      15.86240238      -0.00571121       0.00180755       0.00195442
Ti       2.59835875       0.80744198      15.87872378       0.00401761       0.00436952       0.00157483
Ti       5.73944045       4.81321208      17.09228948       0.00221478       0.00560279      -0.00025109
Ti       5.31223127       0.70852413      17.10863831      -0.00084511       0.00558375      -0.00205565
Ti       3.62110215       2.96251460      17.53929060       0.00123284       0.00232758       0.00081735
Ti       0.34362834       0.50449400      17.55806436      -0.00026357       0.00762712       0.00151951
Ti       2.89842853       0.52111426      18.66419734       0.00561576       0.00271819       0.01217431
Ti       6.78265959       2.63010542      18.64974378      -0.00155427      -0.00006219       0.00685959
Ti       4.93094205       5.22343635      19.95197200       0.00303243       0.00820778       0.00057089
Ti       1.64100034       2.77445831      19.96971825      -0.00047120       0.00338398      -0.00211653
Ti       4.39743453       2.44483561      20.16871515      -0.00419722       0.00071506      -0.00228319
Ti       3.92636324      -1.63531995      20.18711338      -0.00038355       0.00839804      -0.00255658
Ti       6.90647892       2.53849963      21.43726370       0.00431085      -0.00267688      -0.00699778
Ti       2.74783716       0.58919333      21.44942459       0.00235130       0.00026052      -0.01300292
Ti       3.59468232       2.90940878      22.84935449       0.00508177      -0.00311343      -0.00120550
Ti       0.29140016       0.46135370      22.86945982      -0.00060589      -0.00755252       0.00058725
Ti       5.73114341       4.76551764      22.78699761       0.00126325       0.00865142      -0.00220502
Ti       5.26011989       0.68689016      22.80825015       0.00403496       0.00707080      -0.00010272
Ti       2.77791945       0.59469493      24.21287220      -0.00016589      -0.00070848       0.00334714
Ti       6.86967554       2.55960715      24.20753166      -0.00315568      -0.00700481       0.00014017
Ti       3.91131976      -1.62847117      25.55482436      -0.00107671       0.00443929       0.00000493
Ti       4.40253438       2.47635289      25.54797509       0.00036464       0.00251558       0.00284081
Ti       1.62997186       2.79142550      25.65034227       0.00655560      -0.00020863       0.00539923
Ti       4.92247432       5.26866473      25.58298333       0.01250677       0.00249707       0.00540858
Ti       2.86253004       0.58093519      26.97413967      -0.01421665      -0.00560766       0.00161386
Ti       6.85526591       2.58864268      27.01043288      -0.01165712      -0.00029722       0.00992834
Ti       0.36717712       0.59843853      28.20072553       0.01128108       0.00016727      -0.00037943
Ti       3.52494184       2.89157344      28.18001255       0.01093556       0.01086836       0.00519682
Ti       5.26705489       0.77307073      28.57878044      -0.00151716       0.01257369      -0.00612940
Zr       5.70694029       4.79463604      28.54119667       0.00020565       0.01511566      -0.00186836
Ti       7.22030832       2.48487117      29.86823226      -0.00127512      -0.01168292      -0.00844202
Ti       2.65496991       0.82450997      29.89371519       0.01057020      -0.00785316      -0.00427264
Ti       4.56692803       2.69063362      30.78759341      -0.00160670       0.00363645      -0.00725199
Ti       4.07883569      -1.41510998      30.85367359       0.00055407       0.00636104       0.00459851
Ti       6.11156540       0.44955962      31.47669715       0.00172446       0.00747210      -0.00244917
Ti       5.12511572       5.40882330      31.56773633      -0.00150396      -0.00511743      -0.00114318
Ti       3.35827156       0.69171175      32.62268607       0.00728150       0.00155706       0.00824164
Ti       6.72429149       3.08222392      32.59546631       0.00770450       0.00508784       0.00558744
Ti       3.89846096       3.41746759      33.40809155       0.00511622       0.00279419      -0.00253909
Ti       0.62303543       0.98216040      33.44575551       0.00070623      -0.00609496       0.00466132
Ti       5.94561126       5.24159515      34.36278957       0.00086497      -0.00089694      -0.00320858
Ti       5.62468125       1.09031998      34.36728408      -0.00438067       0.00552022       0.00373287
Ti       3.23796905       5.46305615      35.26093669      -0.00091977       0.00328676      -0.00441732
Ti       2.73997592       1.40204413      35.29401499       0.00552161      -0.00254597      -0.00180180
Ti       4.81653619       3.25166424      36.09086590      -0.00505373       0.00055504      -0.00222743
Ti       4.45123091      -0.88843909      36.11098005      -0.00238465      -0.00125781       0.00054659
Ti       6.42859474       0.93716331      37.22628395      -0.00974701      -0.00654675       0.00144471
Ti       1.63771862      -0.65256880      37.23555760      -0.00699768      -0.00394970       0.00414176
Ti       6.98705304       3.65788044      37.86456844      -0.00333213      -0.00239004      -0.00210060
Ti       3.71806460       1.19148335      37.88963178      -0.00393609      -0.00463378      -0.00188473
Ti       4.37533149       3.77082351      38.83036763      -0.00380924      -0.00438865       0.00090934
Ti       5.12576330      -1.01249997      38.84447168      -0.00803058      -0.00577166       0.00132530
Ti       5.76618720       1.48987394      40.10156334      -0.00280137      -0.00292125      -0.00270080
Ti       2.43987496      -0.94232836      40.11808317      -0.00293720      -0.00841205      -0.00350735
Ti       3.46645256       5.89878878      40.45502918      -0.00459007      -0.00189643       0.00317538
Ti       2.98333876       1.82934356      40.47348053      -0.00575428      -0.00566105      -0.00416743
Ti       4.69346311       3.68354600      41.62643735      -0.00041717      -0.00207649       0.00394846
Ti       4.86915923      -0.76725856      41.63758379      -0.00107963      -0.00930316       0.00550485
Ti       2.14296797       3.62740663      42.96394189       0.00372164      -0.00873872       0.00230073
Ti       1.66438102      -0.44611032      42.97988120      -0.00231613      -0.01098296      -0.00146331
Ti       7.10651442       3.85476150      43.08825137      -0.00078177       0.00434658      -0.00504662
Ti       3.80651498       1.40832364      43.10733621       0.00603498      -0.00149326      -0.00337967
Ti       4.61189233       3.75216470      44.40504929      -0.00170488      -0.00146084      -0.00843123
Ti       4.96261224      -0.80186573      44.42029729       0.00059144      -0.00282592      -0.00724865
Ti       3.47595331       5.95594123      -0.01926757       0.00750104       0.00023866      -0.00246017
Ti       3.01160657       1.87394900      -0.00301565       0.00006867       0.00572307      -0.00167765
