100
Lattice="4.4265 -2.555641 0.0 3.767997 6.526363 -0.031456 0.0 0.0 45.781652" Properties=species:S:1:pos:R:3:forces:R:3 job_name=CSL13-Cu-Cu-55-d-2.65 GB_type=CSL13 element=Cu system=Cu-55-d-2.65 distance=2.65 energy=-770.59361535 stress_kbar_3x3="_JSON [[-37.28156338, -3.08192915, 1.60456711], [-3.08192913, -39.88298478, 1.80827999], [1.60456716, 1.80827999, -22.03359849]]" pbc="T T T"
Ti       2.48175283      -0.88836003       0.03020304       0.00018022      -0.00534307       0.00008246
Ti       5.77656703       1.56024911       0.01433291      -0.00431831      -0.00336245       0.00035578
Ti       5.00086656      -0.79913571       1.38491349      -0.00282162      -0.00531529       0.00763765
Ti       4.59414803       3.78678872       1.36923380      -0.00250087      -0.00658924       0.00823331
Ti       7.10947796       3.87039680       2.62242367      -0.00332758      -0.00677819       0.00034352
Ti       3.81558214       1.42104889       2.63810132      -0.00363309      -0.00582487       0.00026882
Ti       1.67120963      -0.43483391       2.88659624      -0.00274505      -0.00337553       0.00004002
Ti       2.14806390       3.64106568       2.87082735      -0.00203482      -0.00504605       0.00016961
Ti       4.73929306       3.65917492       4.17019834      -0.00254776      -0.00283827      -0.00385843
Ti       4.81770021      -0.73714184       4.18608934      -0.00065105      -0.00366627      -0.00315045
Ti       3.44855858       5.87566607       5.25565020      -0.00216677      -0.00337447      -0.00360423
Ti       2.95609217       1.80894227       5.27135846      -0.00162676      -0.00327865      -0.00412632
Ti       2.41115159      -0.94930772       5.76727376      -0.00198468      -0.00217837       0.00232521
Ti       5.75902957       1.46890923       5.75146618      -0.00027888      -0.00380685       0.00266231
Ti       4.28086113       3.76658436       6.96072235      -0.00281828      -0.00311136       0.00104167
Ti       5.14042304      -1.08113407       6.97672222      -0.00060920      -0.00366974       0.00009087
Ti       6.92863851       3.59632452       7.86055840       0.00080466      -0.00252222       0.00260719
Ti       3.66968689       1.12685966       7.87605605      -0.00288279       0.00016044       0.00291483
Ti       6.37785425       0.88890100       8.62178381       0.00119394      -0.00143510       0.00190319
Ti       1.60044569      -0.70307979       8.63781448      -0.00212186       0.00028760       0.00278431
Ti       4.78969463       3.18286983       9.69550889      -0.00131165      -0.00355845       0.00211594
Ti       4.38005597      -0.93186620       9.71172455      -0.00119957      -0.00303187       0.00068073
Ti       3.17571109       5.41128556      10.49729683       0.00009947      -0.00021691       0.00138721
Ti       2.69192968       1.33986230      10.51194490       0.00348106      -0.00074437       0.00259279
Ti       5.89735137       5.19688801      11.45122505       0.00147049      -0.00128332       0.00261784
Ti       5.57179647       1.03599016      11.46634141      -0.00223183      -0.00063560       0.00267121
Ti       0.58832625       0.91371271      12.39245503      -0.00393234      -0.00215933       0.00186431
Ti       3.85745029       3.37498316      12.37782478      -0.00196724      -0.00292618      -0.00225088
Ti       3.30376660       0.64826672      13.20829916      -0.00229847       0.00194862      -0.00167201
Ti       6.69923560       3.03954114      13.19304479       0.00072370       0.00159282       0.00217324
Ti       5.08727113       5.35560781      14.30075827      -0.00295096       0.00107518       0.00212921
Ti       6.10993254       0.41236146      14.31933066      -0.00162563      -0.00673018      -0.00128620
Ti       4.53695685       2.63392679      15.00024320       0.00056311      -0.00202322      -0.00037444
Ti       4.02938202      -1.42958047      15.01276032       0.00267990      -0.00628234       0.00225669
Ti       7.15871124       2.49421413      15.93992918      -0.00057089       0.00333691       0.00560032
Ti       2.60565158       0.77917747      15.95678695      -0.00113539      -0.00472478       0.00448105
Ti       5.72764635       4.78436107      17.19167214       0.00045917       0.00183251       0.00157911
Ti       5.28622961       0.68560736      17.20581143      -0.00650922      -0.00254387       0.00398674
Ti       3.59705208       2.91957261      17.60467073       0.00185573      -0.00222447       0.00358728
Ti       0.32366348       0.47085977      17.62184970      -0.00286504      -0.01090943       0.00947857
Ti       2.86241093       0.49678174      18.76092680      -0.00409417      -0.00383934       0.00588532
Ti       6.77442917       2.57714660      18.73926331       0.01043190       0.00306089       0.00110151
Ti       4.89052293       5.19025324      20.08677534       0.00439857       0.00327350       0.00436363
Ti       1.63218216       2.72192256      20.10919136       0.00039141      -0.00850992       0.00838632
Ti       4.37805709       2.38337042      20.24521816      -0.00508978      -0.00054579      -0.00433049
Ti       3.88816313      -1.68414363      20.24503690      -0.01125503      -0.00514825      -0.00155122
Ti       6.84056545       2.46433303      21.55722745      -0.00609013       0.00551705       0.00452158
Ti       2.74464491       0.51737346      21.58383576      -0.00556228      -0.00906199       0.00257704
Ti       3.48589327       2.83433061      22.87826831      -0.00593554       0.00371495       0.00242469
Ti       0.26083951       0.35623697      22.85489950       0.00264889      -0.00013987      -0.00022108
Ti       5.68706524       4.66516957      22.99443829      -0.00363909       0.00775598       0.00905265
Ti       5.18509905       0.62249155      22.94989422      -0.00004592      -0.00601793       0.00467977
Ti       2.61714811       0.54397412      24.42050190      -0.00411240      -0.00258964      -0.00050097
Ti       6.87973270       2.41063932      24.40576398      -0.00447298       0.00706470       0.00226411
Ti       3.92101833      -1.68926551      25.40392510      -0.01269928      -0.00174125      -0.01045840
Cu       4.32255104       2.39792438      25.29023831       0.00755604       0.00218418      -0.00667851
Ti       5.82175133       0.25103702      25.85649049      -0.01519517       0.00722106       0.00596008
Ti       4.99356766       5.00910612      25.86451485       0.00555403       0.01455965       0.00469602
Ti       3.16862208       0.36575546      27.13655976       0.01055008       0.00153319       0.00412910
Ti       6.43654807       2.74276959      27.16155740       0.00200122       0.01466143       0.00358593
Ti       0.45003971       0.55337494      27.91656924       0.00305707       0.01322511      -0.00863449
Ti       3.64783292       3.14563383      27.71654959       0.00456369       0.00898925       0.00988171
Ti       5.49938305       0.64804120      28.79417658       0.00558460       0.01204624       0.00786392
Ti       5.69414514       4.85102008      28.71805144      -0.00161033       0.00617247      -0.00422678
Ti       2.98546300       5.05692812      29.80608154       0.00697058       0.01616344      -0.00756144
Ti       2.51894223       0.95156301      29.81708031       0.00372041       0.00907414      -0.00670489
Ti       4.60811692       2.79530219      30.45995781       0.01027111       0.01031939      -0.00611264
Ti       4.17178529      -1.28500647      30.57658227       0.00781150       0.00793704      -0.00916211
Ti       6.15878534       0.54038609      31.58502257       0.00468257       0.01137610       0.00180499
Ti       5.20106331       5.42402822      31.55014436       0.00946248       0.00818129       0.00647105
Ti       3.46210761       0.74108897      32.47158174       0.01426191       0.00478612      -0.00768194
Ti       6.70209523       3.21365072      32.46294672       0.00832779       0.00818134      -0.00448287
Ti       4.00828591       3.46499335      33.23971177       0.01221484       0.01142235      -0.00542125
Ti       5.02977910      -1.48439306      33.28489659       0.00237336       0.01138251      -0.00553636
Ti       2.21497139      -1.24165604      34.38447345       0.00899172       0.00224171       0.00446546
Ti       5.61582049       1.15031417      34.38119602       0.00622928       0.00514760       0.00314680
Ti       3.28272714       5.53803349      35.09361580       0.00830475       0.01011956      -0.01285107
Ti       2.75464984       1.49220384      35.10352548       0.00665193       0.00922251      -0.01618470
Ti       4.73980495       3.34066224      36.00693308      -0.00358176       0.01018473      -0.00025905
Ti       4.54428145      -0.89495990      36.02881552       0.01365824      -0.00756041      -0.00171562
Ti       2.02892212       3.48180662      37.21845508       0.00635077       0.00101576       0.00929587
Ti       1.59884680      -0.61871508      37.23132611      -0.00238818       0.00084190       0.00680678
Ti       6.99514953       3.69364038      37.70419823       0.00552281       0.00308094      -0.01273774
Ti       3.72397490       1.23475586      37.71683606       0.00091001       0.00280329      -0.01186036
Ti       4.43214307       3.72840284      38.79563222       0.00579415      -0.00818019      -0.00132762
Ti       5.03441072      -0.96937332      38.81327326      -0.01258317      -0.00145143      -0.00187125
Ti       5.73573633       1.49260532      40.09015910      -0.00293348      -0.00250671       0.00567339
Ti       2.44504125      -0.95801438      40.10528011      -0.00189330      -0.00608082       0.00346342
Ti       3.45396109       5.90328524      40.34319653      -0.00328130      -0.00409474      -0.00870834
Ti       2.97954120       1.82776449      40.35770791      -0.00170342      -0.00690621      -0.00794932
Ti       4.66037186       3.69827551      41.59321895      -0.00446352      -0.00485002       0.00963178
Ti       4.89186916      -0.78614108      41.60929766       0.00130871      -0.00881258       0.00966449
Ti       2.14033411       3.63240677      42.94748291      -0.00707208      -0.00758049       0.00327256
Ti       1.66887007      -0.44594719      42.96329826      -0.00385899      -0.00983827       0.00207258
Ti       7.11275382       3.85897776      43.02493565      -0.00257747      -0.00464320      -0.00575584
Ti       3.80578136       1.41793577      43.04026439      -0.00204640      -0.00652574      -0.00513238
Ti       4.62590756       3.76022097      44.37164474      -0.00211046      -0.00732745      -0.01272115
Ti       4.96298880      -0.78579883      44.38735357      -0.00708676      -0.00320339      -0.01331370
Ti       3.48663389       5.97430886      45.72364095      -0.00701036      -0.00707343      -0.00420237
Ti       3.02277719       1.89104858      45.73912139      -0.00200751      -0.00895607      -0.00362658
