52
Lattice="4.6568 0.0 0.0 0.0 7.770572 0.0 0.0 0.0 25.044546" Properties=species:S:1:pos:R:3 job_name=CSL7-Zn-Zn-26-d-0.72 GB_type=CSL7 element=Zn system=Zn-26-d-0.72 distance=0.72 energy=-393.83744088 pbc="T T T"
Ti       1.83266562       7.34810991       0.72160809
Ti       4.63273696       5.55240368       1.39846071
Ti       2.48221865       2.21452496       1.60467044
Ti       4.57430625       0.56064812       2.08339480
Ti       2.35272668       4.90060076       2.85461475
Ti       0.02218814       3.24529634       3.02559397
Ti       2.30339862       7.66142504       3.64860555
Ti       0.02103329       5.98927154       4.11775926
Ti       2.32926453       2.62768440       4.61825650
Ti       4.64430687       0.97773963       4.97775822
Ti       2.34269525       5.42819273       5.66801600
Ti       0.00388504       3.73068202       5.93526960
Ti       2.32063265       0.40246231       6.59147051
Ti       0.00432328       6.47673806       6.93996232
Ti       2.30496856       3.16902723       7.57239177
Ti       4.64702746       1.50250741       7.84721239
Ti       2.34478736       5.94647903       8.56183916
Ti       4.59057341       4.20890465       8.82525942
Ti       2.30125406       1.02801092       9.50596556
Ti       0.00239252       7.05242614       9.69994872
Ti       1.92829494       3.83280869      10.91756693
Ti       4.61333624       2.06207460      10.80491760
Ti       2.33484371       6.60409623      11.31036771
Ti       4.14998118       4.75461898      11.49776925
Ti       2.61046148       1.48598748      12.58520833
Ti       0.21422563       7.62134933      12.46094243
Zn       0.95844319       5.16716529      13.53903627
Ti       3.16662945       6.66118145      13.98679135
Ti       0.59958275       2.31955714      13.89235689
Ti       3.17388889       3.85794087      14.32277378
Ti       0.82038749       7.40031652      15.32190726
Ti       3.09807505       1.32551151      15.48411121
Ti       0.83804550       4.57265768      16.15232559
Ti       3.15329577       6.30457226      16.59638931
Ti       0.78790215       1.83658917      17.08637205
Ti       3.13030188       3.45531810      17.48641406
Ti       0.82390317       6.77884761      18.13770858
Ti       3.14407129       0.71660742      18.43493616
Ti       0.79913051       3.98515819      19.07594779
Ti       3.12039019       5.68395178      19.41849214
Ti       0.80949350       1.21919376      20.03603716
Ti       3.12858595       2.87388581      20.41435538
Ti       0.77510901       6.19004712      20.95157799
Ti       3.15102077       0.10781828      21.35861795
Ti       0.78135608       3.40134605      22.01547833
Ti       3.09460330       5.09858479      22.21091397
Ti       0.88395078       0.65479446      22.96139762
Ti       2.99475026       2.32202534      23.39729396
Ti       0.79414610       5.61139610      23.69251944
Ti       3.61248115       7.42443617      24.32714351
Ti       0.40249421       2.78979698       0.00538230
Ti       2.74072415       4.55844458       0.00742027
