52
Lattice="4.6568 0.0 0.0 0.0 7.770572 0.0 0.0 0.0 25.044546" Properties=species:S:1:pos:R:3:forces:R:3 job_name=CSL7-Cu-Cu-31-d-3.01 GB_type=CSL7 element=Cu system=Cu-31-d-3.01 distance=3.01 energy=-396.22911285 stress_kbar_3x3="_JSON [[-19.30025228, 0.05907241, 0.60790559], [0.05907245, -29.17278135, 0.24094843], [0.60790561, 0.24094846, -24.87450486]]" pbc="T T T"
Ti       1.81567428       7.39888460       0.69223581      -0.00098035      -0.00940791       0.00184217
Ti       4.63599833       5.59289089       1.35790533      -0.00086873       0.00329858      -0.00138498
Ti       2.45954757       2.27606330       1.61112810       0.00266458       0.00006001       0.00000747
Ti       4.56684285       0.62158606       2.07719172       0.00270905      -0.01381150      -0.00174047
Ti       2.35992729       5.00692498       2.82471266       0.00022199       0.00557856      -0.00198249
Ti       0.02737062       3.33110737       3.01550026      -0.00106887       0.00453502       0.00996983
Ti       2.31169854       0.01056919       3.65205087      -0.00188309      -0.00333853       0.00293863
Ti       0.03109639       6.09972179       4.09499359       0.00305558      -0.00123769      -0.00668457
Ti       2.34171473       2.76068808       4.60814458       0.00196952       0.00224939      -0.00058794
Ti       0.00472277       1.11241009       5.00427297       0.00141151      -0.00095866       0.00489476
Ti       2.35044430       5.56405440       5.62216098       0.00117255      -0.00590732       0.00104718
Ti       0.01363485       3.86695954       5.96105630       0.00047911       0.00384337      -0.00555439
Ti       2.33736430       0.56102454       6.59553150       0.00172129      -0.00703844      -0.00088805
Ti       0.01963990       6.62963526       6.92546929       0.00010698       0.00105549      -0.00537747
Ti       2.33477925       3.31680729       7.54894240       0.00084042       0.00009503      -0.00458139
Ti       0.01226399       1.67069379       7.94286284       0.00168380      -0.00126728      -0.00087787
Ti       2.35624149       6.09022129       8.45423161       0.00192733       0.00067239       0.00002384
Ti       4.63972008       4.41567361       8.90755811      -0.00123077       0.00155740       0.00174177
Ti       2.34361378       1.09638744       9.54412193       0.00030931      -0.00187551      -0.01074455
Ti       0.02757424       7.17961913       9.70312166      -0.00411811      -0.01041872       0.01175933
Ti       2.23490102       3.80186426      10.47875422       0.00473155       0.01079144       0.00714973
Ti       0.11767712       2.15761800      10.95115236       0.00317495       0.00689908      -0.00072180
Ti       2.31325755       6.60353060      11.20375463       0.00297627      -0.00927003       0.00321816
Ti       4.12853611       4.78717722      11.87301528      -0.00894200       0.00383556      -0.01470734
Ti       2.68588179       1.60066079      12.54233347      -0.01211128      -0.00177642       0.01300478
Ti       0.36296178       7.61447103      12.50963202       0.00164133      -0.00649988      -0.00411574
Ti       1.27583141       4.82212420      13.30333245       0.00577683      -0.00348432      -0.01019313
Ti       3.11670845       6.67754088      13.91562134       0.00402592       0.01034634       0.00136929
Ti       0.61835502       2.14119606      14.14805828      -0.00078633      -0.00086568      -0.00528017
Ti       3.18860727       3.76207243      14.64440886      -0.00026661      -0.01419378       0.00500633
Ti       0.70814167       7.31378438      15.39464297      -0.00130693       0.00240079       0.00429189
Cu       3.00058961       1.15213749      15.53524691      -0.00249054      -0.00481134       0.00573952
Ti       0.77863503       4.53559657      16.15127379      -0.00045087       0.00475986       0.01034916
Ti       3.06428049       6.14881051      16.59514968      -0.00407621      -0.00046328       0.00701930
Ti       0.72235838       1.72324736      17.04710299      -0.00167822       0.00193879      -0.00031719
Ti       3.10391634       3.37797446      17.46869340       0.00103193       0.00734857      -0.00436373
Ti       0.73420452       6.63311708      18.13455453       0.00071333      -0.00684767      -0.00325955
Ti       3.09651657       0.55497212      18.39918490       0.00007021      -0.00450928      -0.00104316
Ti       0.74653511       3.85154629      19.06912805      -0.00254358       0.00689547      -0.00336595
Ti       3.06650597       5.55934382      19.39932765       0.00116927       0.01086544      -0.00841837
Ti       0.75141173       1.11494142      20.01039174      -0.00115359      -0.00333548      -0.00670153
Ti       3.07300810       2.75879619      20.40867898      -0.00160410       0.00772095       0.00832220
Ti       0.71974041       6.08926883      20.94571773      -0.00373363      -0.00025714       0.00015905
Ti       3.10022338       0.00746537      21.34723800       0.00206517      -0.00306289      -0.00402530
Ti       0.72559018       3.32424082      22.00088817       0.00009852       0.01388298      -0.00066187
Ti       3.04953827       4.99837748      22.19535844       0.00122330      -0.00284049      -0.00339910
Ti       0.84363648       0.61639270      22.92147804       0.00067427      -0.00129954       0.00239553
Ti       2.94802026       2.26895335      23.40880792       0.00140819       0.00790310      -0.00240169
Ti       0.77528946       5.58582015      23.66220242       0.00012254      -0.00157194       0.00370475
Ti       3.59576112       7.39151221      24.30773547       0.00044257      -0.01161521       0.00811303
Ti       0.37679849       2.78985580      25.02973249      -0.00250855      -0.00073007      -0.00546815
Ti       2.70760229       4.56431011      25.03183261       0.00218318       0.01416242       0.00478024
