52
Lattice="4.6568 0.0 0.0 0.0 7.770572 0.0 0.0 0.0 25.044546" Properties=species:S:1:pos:R:3:forces:R:3 job_name=CSL7-Zr-Zr-31-d-3.01 GB_type=CSL7 element=Zr system=Zr-31-d-3.01 distance=3.01 energy=-401.34781572 stress_kbar_3x3="_JSON [[-7.56220372, 0.41382, -0.24663872], [0.41381999, -13.84646324, -1.09332789], [-0.24663874, -1.09332793, -9.6793951]]" pbc="T T T"
Ti       1.81604450       7.39648394       0.72239928       0.01013720      -0.00282158      -0.00800549
Ti       4.62502412       5.61658402       1.37814707      -0.00400691      -0.00762003      -0.00261790
Ti       2.45876921       2.27412901       1.61695233       0.00328475      -0.00047098       0.00214348
Ti       4.56708046       0.64137548       2.07525994      -0.00673060       0.00474304       0.00265833
Ti       2.36122908       5.00853951       2.82815977       0.00175925      -0.00136782      -0.00170821
Ti       0.03014403       3.34770696       3.00611708       0.00068283       0.00001036      -0.00482813
Ti       2.31201292       0.00896802       3.63729213       0.00472594       0.00290162      -0.00024041
Ti       0.03585830       6.11179233       4.08428315       0.00014727       0.00412893       0.00056722
Ti       2.34711010       2.76359943       4.58767362       0.00333435       0.00264520      -0.00503612
Ti       0.00684767       1.12442373       4.97347722       0.00107004       0.00175560      -0.00344388
Ti       2.35063553       5.56587586       5.60491335       0.00045273       0.00530064      -0.00048501
Ti       0.01424324       3.87858177       5.92596698      -0.00100520       0.00228371      -0.00079824
Ti       2.34053667       0.56710970       6.54924692       0.00049285       0.00035992       0.00152311
Ti       0.02288505       6.65201708       6.89071320       0.00047990      -0.00009792       0.00333716
Ti       2.33834961       3.32518989       7.50570990       0.00039875      -0.00066988       0.00452900
Ti       0.01483284       1.68055549       7.88706029       0.00287483      -0.00213075       0.00506440
Ti       2.36344874       6.11060637       8.41347687       0.00141473       0.00258413      -0.00257328
Ti       4.64100606       4.43487409       8.83753091       0.00500845       0.00475662       0.00653542
Ti       2.35427460       1.11222225       9.46195440       0.00507485       0.00417734       0.00517642
Ti       0.02970676       7.21252847       9.67581257      -0.00065903      -0.00037594       0.00227034
Ti       2.23958430       3.83120944      10.41355407       0.00106409      -0.00216774       0.00091330
Ti       0.12492223       2.17467558      10.84201828       0.00375543      -0.00184047       0.00067031
Ti       2.31119374       6.63383271      11.11967131      -0.00298350       0.00050984       0.00598414
Ti       4.16582564       4.82897539      11.76536200       0.00368421      -0.00062404      -0.00093250
Ti       2.71035586       1.68002020      12.44565516      -0.00440351      -0.00130968      -0.00105380
Ti       0.41016643       7.66782338      12.51532159       0.00620966       0.00759852       0.00514685
Ti       1.26687018       4.84814959      13.19179346       0.00053941      -0.00510526      -0.00120164
Ti       3.12651133       6.58544430      13.82883883       0.00322025      -0.00303313      -0.00397106
Ti       0.61017762       2.22479266      14.00583822      -0.00295923      -0.00089550      -0.01271944
Ti       3.20809459       3.89152837      14.55224988      -0.00724374       0.00285005      -0.00504436
Ti       0.72152490       7.07643935      15.32472048       0.00181213      -0.00166144      -0.00547632
Zr       3.03513814       1.11863150      15.53239221      -0.01313167       0.00330923      -0.00069859
Ti       0.75995771       4.33207796      16.19615595      -0.00131165      -0.00409518      -0.00259018
Ti       3.05518770       6.03621881      16.62481689       0.00348846      -0.00681664      -0.00253225
Ti       0.72399803       1.65680885      17.25342433      -0.00455709      -0.00333870       0.00076654
Ti       3.06005515       3.31888662      17.59570858      -0.00004402      -0.00097736       0.00347135
Ti       0.72744400       6.61688593      18.13582427       0.00282227      -0.00462062       0.00038337
Ti       3.06050137       0.52734964      18.55885387       0.00148627       0.00006029      -0.00139675
Ti       0.72924805       3.87806856      19.14973966       0.00073015      -0.00601414       0.00022011
Ti       3.05161066       5.56286617      19.46949990      -0.00033148       0.00411044       0.00184556
Ti       0.73891094       1.09532823      20.10906520      -0.00127002       0.00384154       0.00094887
Ti       3.05703012       2.74611000      20.48803851      -0.00049816       0.00396384       0.00133109
Ti       0.71456791       6.10781215      20.97758133      -0.00075797      -0.00019273       0.00369597
Ti       3.09523661       0.00188607      21.45971057      -0.00410657      -0.00336314       0.00481573
Ti       0.71606225       3.33701798      22.06305283      -0.00080707       0.00337270       0.00320488
Ti       3.04288759       4.99906384      22.24441930      -0.00233074      -0.00298554       0.00140868
Ti       0.83495295       0.63431449      23.01281594      -0.00170237       0.00205431      -0.00005948
Ti       2.94823233       2.27527582      23.45802483      -0.00105644       0.00164573       0.00025307
Ti       0.77820232       5.61436776      23.69364460      -0.00045348      -0.00445154      -0.00078056
Ti       3.59018596       7.39753548      24.36585995      -0.00613804       0.00009620       0.00224177
Ti       0.37444222       2.82236123       0.01783879      -0.00191097      -0.00120685      -0.00181512
Ti       2.70177263       4.57572118       0.01489254       0.00024839       0.00119480      -0.00109773
