52
Lattice="4.6568 0.0 0.0 0.0 7.770572 0.0 0.0 0.0 25.044546" Properties=species:S:1:pos:R:3:forces:R:3 job_name=CSL7-Cu-Cu-25-d-0.00 GB_type=CSL7 element=Cu system=Cu-25-d-0.00 distance=0.0 energy=-396.61421912 stress_kbar_3x3="_JSON [[-16.36253036, 6.386e-05, 2.6472155], [6.387e-05, -26.81933869, 0.01148983], [2.64721553, 0.0114898, -24.80363704]]" pbc="T T T"
Ti       1.81891749       7.40550125       0.71245361      -0.01172557       0.00076491       0.00251540
Ti       4.63511017       5.60732056       1.37558231      -0.00258488       0.00495461       0.00267386
Ti       2.45740500       2.28974945       1.62370759       0.00122974       0.00479315      -0.00118185
Ti       4.56513167       0.63171397       2.09346599       0.00098845       0.00257736       0.00378587
Ti       2.35697542       5.02081590       2.84672629      -0.00437431       0.00988136       0.00197440
Ti       0.02409969       3.34486999       3.03437411      -0.01008121       0.00136656      -0.00399929
Ti       2.30374236       0.02334177       3.66502498      -0.00861468       0.00398244      -0.00370847
Ti       0.02360980       6.11839538       4.12485856      -0.00475825      -0.00763534      -0.00716572
Ti       2.33478444       2.77874141       4.62112846      -0.00893257      -0.00088801       0.00470974
Ti       0.00075581       1.12442965       5.01945481      -0.00613453      -0.00007792      -0.00574532
Ti       2.33433762       5.57831034       5.65462499      -0.00233236       0.00670939      -0.00072694
Ti       4.65329392       3.87936372       5.97614270      -0.00421192      -0.00489056      -0.00597433
Ti       2.32603382       0.56927784       6.59342688      -0.00696693       0.00524234      -0.01501533
Ti       0.00034575       6.65019495       6.97244462      -0.00490068      -0.00447657      -0.00909596
Ti       2.31209661       3.33163535       7.55088933      -0.00349034       0.00569558       0.00195775
Ti       4.64413288       1.67214209       7.95103504       0.00258709       0.00643512       0.00426245
Ti       2.31918117       6.10597373       8.50150878       0.00225780      -0.01437010      -0.00329119
Ti       4.59383824       4.42580008       8.92166964      -0.00447511       0.00182853       0.00228089
Ti       2.32168237       1.08854676       9.51885323      -0.00211937       0.01325931       0.00366527
Ti       4.60158062       7.20951240       9.79626238      -0.00941510      -0.00869413       0.00349315
Ti       2.15526333       3.80504034      10.50073985       0.01269979      -0.00539508      -0.00156150
Ti       0.06306828       2.09345990      10.91978805      -0.00135097      -0.00035621       0.00276415
Ti       2.21828952       6.60496838      11.21506224      -0.00133844      -0.00533631      -0.00190304
Ti       4.13122052       4.74670265      11.81914709      -0.00540265       0.00123077      -0.00463703
Ti       2.70531267       1.63636313      12.52212171      -0.00051319      -0.01329459      -0.00010287
Cu       0.37708336       7.67313719      12.52210225       0.00052300      -0.01816887      -0.00085401
Ti       1.27828022       4.74703660      13.22400735       0.00557459       0.00204942       0.00566253
Ti       3.19166823       6.60533282      13.82853117      -0.00073485      -0.00553031       0.00184214
Ti       0.68967415       2.09400581      14.12364780      -0.00066235       0.00009799      -0.00189845
Ti       3.25352739       3.80557603      14.54251239      -0.01288229      -0.00563765       0.00203928
Ti       0.80754988       7.21037111      15.24750599       0.01067462      -0.00984389      -0.00232890
Ti       3.08795301       1.08931760      15.52479593      -0.00009294       0.01341577      -0.00367645
Ti       0.81426089       4.42645806      16.12161040       0.00533680       0.00262815      -0.00200453
Ti       3.08905665       6.10670161      16.54217378      -0.00230422      -0.01420466       0.00281499
Ti       0.76469577       1.67317650      17.09251857      -0.00227077       0.00599906      -0.00419075
Ti       3.09633587       3.33244479      17.49257661       0.00379704       0.00570627      -0.00222803
Ti       0.75081204       6.65094767      18.07114238       0.00545073      -0.00432445       0.00924390
Ti       3.08220639       0.57034213      18.45023253       0.00685246       0.00326058       0.01387654
Ti       0.75489757       3.87997266      19.06738881       0.00482260      -0.00421936       0.00505606
Ti       3.07385059       5.57873659      19.38924061       0.00307684       0.00791889      -0.00184118
Ti       0.75060121       1.12501722      20.02438882       0.00695675      -0.00053000       0.00521138
Ti       3.07341984       2.77921370      20.42220964       0.00925762      -0.00045826      -0.00422607
Ti       0.72804508       6.11895430      20.91869868       0.00595954      -0.00764414       0.00720622
Ti       3.10519365       0.02362359      21.37878685       0.00842083       0.00538754       0.00315537
Ti       0.72770531       3.34534850      22.00921900       0.00972282       0.00157439       0.00386983
Ti       3.05157870       5.02134506      22.19658378       0.00370950       0.00960480      -0.00057062
Ti       0.84440308       0.63219136      22.95028217      -0.00091606       0.00258585      -0.00276338
Ti       2.95226083       2.28996541      23.41947538      -0.00195262       0.00477344       0.00151112
Ti       0.77391961       5.60784550      23.66801330       0.00346832       0.00344941      -0.00172301
Ti       3.59099002       7.40576988      24.33152672       0.01134561       0.00163420      -0.00320190
Ti       0.37637425       2.80928045      25.04397489       0.00042963       0.00123333       0.00036526
Ti       2.70473821       4.58635951      25.04398326       0.00039698      -0.00406409      -0.00032141
