52
Lattice="4.6568 0.0 0.0 0.0 7.770572 0.0 0.0 0.0 25.044546" Properties=species:S:1:pos:R:3:forces:R:3 job_name=CSL7-Zr-Zr-34-d-4.60 GB_type=CSL7 element=Zr system=Zr-34-d-4.60 distance=4.6 energy=-401.35514331 stress_kbar_3x3="_JSON [[-5.69310044, -0.02756652, 0.16052848], [-0.02756652, -11.81712451, 0.38676444], [0.16052849, 0.38676446, -10.38976432]]" pbc="T T T"
Ti       1.81885031       7.38294437       0.73365182       0.00039774      -0.00105866      -0.00550310
Ti       4.62357383       5.60387648       1.38181890      -0.00191991       0.00013792      -0.00729376
Ti       2.45845342       2.26726473       1.61973217       0.00257075      -0.00182266       0.00468310
Ti       4.56495253       0.62921314       2.08313700       0.00019705      -0.00000279       0.00029147
Ti       2.35668082       5.00131882       2.83134293       0.00255485       0.00113890      -0.00109441
Ti       0.02717580       3.33865233       3.01448181       0.00040421       0.00048104       0.00575438
Ti       2.30974719       0.00628082       3.64924921       0.00270270       0.00325366       0.00623462
Ti       0.03337852       6.10625870       4.08808793       0.00326528      -0.00196235       0.00642113
Ti       2.34244006       2.76005368       4.59884423       0.00081079      -0.00229600       0.00541652
Ti       0.00461424       1.11860325       4.98587407       0.00218322      -0.00025010       0.00581948
Ti       2.34706110       5.56285933       5.60901477       0.00215304      -0.00448838       0.00297818
Ti       0.00969121       3.87562948       5.94216671       0.00329411      -0.00559477       0.00398749
Ti       2.33678930       0.56307495       6.56457443       0.00266283      -0.00484832      -0.00283819
Ti       0.01836297       6.64376357       6.89796129       0.00544468      -0.00332741      -0.00980049
Ti       2.33461323       3.31588443       7.52626867       0.00330172      -0.00672342      -0.00884241
Ti       0.01552853       1.67309945       7.90444901      -0.00025780      -0.00774704      -0.01148373
Ti       2.35818872       6.10000127       8.41686005       0.00152985      -0.00367283      -0.00128511
Ti       4.63808535       4.43024233       8.86602051       0.00406371      -0.01071880      -0.01032349
Ti       2.35779146       1.09364497       9.48602320      -0.00123294      -0.00215538      -0.00826870
Ti       0.03135626       7.19548973       9.67698636      -0.00270830      -0.00145218       0.00228909
Ti       2.23685545       3.80705754      10.43477424      -0.00320033      -0.00002554      -0.00548757
Ti       0.11724490       2.15513563      10.85431786       0.00304805      -0.01031510      -0.00035175
Ti       2.30474806       6.60063477      11.13081276       0.00488653      -0.00418723       0.01157446
Ti       4.14419556       4.79027975      11.80975230      -0.00385198       0.00778844       0.00324649
Ti       2.69486682       1.63645850      12.47942233      -0.00490281      -0.00777335       0.00716736
Ti       0.37460667       7.64208027      12.49122194      -0.00481569      -0.00651093      -0.00026464
Ti       1.26684742       4.82509487      13.20555091       0.00378140       0.00610871       0.00803473
Ti       3.12396262       6.56328629      13.86717780      -0.00370387       0.00669110      -0.00731649
Ti       0.58330426       2.19376408      14.00193896      -0.00115193       0.00122417       0.00228596
Ti       3.16413792       3.80623465      14.62432369       0.00613016      -0.00330459       0.00478774
Ti       0.72388090       7.17518318      15.27618879       0.00242313      -0.01208529      -0.00021809
Ti       3.04575327       1.08746113      15.39173947      -0.00621414       0.00341688      -0.00137826
Ti       0.77555704       4.51587500      16.15240416      -0.00304569       0.00643785      -0.00896967
Ti       3.06273008       6.17966781      16.61131119      -0.00896994       0.00810640      -0.00221920
Zr       0.73557653       1.68885836      17.09448296      -0.00045957       0.00761801       0.00225743
Ti       3.08228715       3.43053147      17.53044194      -0.00254808       0.00030852       0.00854108
Ti       0.74435378       6.60537435      18.16402806      -0.00255058       0.00285732      -0.00200847
Ti       3.07570809       0.52824051      18.55693920      -0.00094218      -0.00199211      -0.00207697
Ti       0.74650632       3.90475482      19.15522427      -0.00266652       0.00709153       0.00671707
Ti       3.06684296       5.57503723      19.46547620      -0.00028229      -0.00069961       0.00499110
Ti       0.74892860       1.09177134      20.13723793      -0.00084370       0.00992287      -0.00034981
Ti       3.06393175       2.75610062      20.45764718      -0.00239492       0.00866192       0.00000215
Ti       0.72606384       6.11036452      20.98733175      -0.00396355      -0.00137529       0.00334113
Ti       3.10225381       7.77006155      21.46191832       0.00385135       0.00401529       0.00150595
Ti       0.71923647       3.33662002      22.06673446       0.00085748       0.00248124      -0.00907900
Ti       3.05017999       4.99461678      22.23579651      -0.00352554       0.00911044      -0.00017132
Ti       0.84623258       0.62643007      23.02055155      -0.00653804      -0.00372391       0.00059632
Ti       2.95503211       2.26964070      23.44930575      -0.00015295       0.00145518      -0.00056848
Ti       0.78090184       5.60338708      23.69925736       0.00356377       0.00329417       0.00720805
Ti       3.58703635       7.38928737      24.36346268       0.00521236      -0.00620493      -0.00515503
Ti       0.37652261       2.81153899       0.02070974       0.00072273       0.00464388      -0.00042711
Ti       2.70727031       4.56222952       0.01450297       0.00082977       0.01007348      -0.00335725
