52
Lattice="4.6568 0.0 0.0 0.0 7.770572 0.0 0.0 0.0 25.044546" Properties=species:S:1:pos:R:3:forces:R:3 job_name=CSL7-V-V-26-d-0.72 GB_type=CSL7 element=V system=V-26-d-0.72 distance=0.72 energy=-401.86014727 stress_kbar_3x3="_JSON [[-19.39415612, -0.57732205, -1.35413524], [-0.57732208, -24.48931832, 2.23027606], [-1.35413524, 2.23027609, -23.64794]]" pbc="T T T"
Ti       1.81641184       7.39653903       0.70924586      -0.00451961      -0.00106713       0.00157456
Ti       4.63123252       5.59529993       1.37374315       0.00406845      -0.00045404      -0.00271682
Ti       2.45881570       2.27614876       1.62238363       0.00195508      -0.00073471      -0.00181200
Ti       4.56652477       0.62021549       2.08690595       0.00337576      -0.00415491       0.00213255
Ti       2.35780638       5.00651341       2.83634295       0.00060344      -0.00104571      -0.00071588
Ti       0.02265154       3.33341115       3.03075071       0.00002653      -0.00128588       0.00131068
Ti       2.31290250       0.00906943       3.65957256       0.00234514      -0.00096932       0.00164683
Ti       0.03071477       6.09894518       4.10436068       0.00391911      -0.00116512      -0.00253763
Ti       2.34061160       2.75981677       4.62459222       0.00175108      -0.00132032      -0.00021554
Ti       0.00385681       1.10926143       5.00714685       0.00313496      -0.00255329       0.00274365
Ti       2.34704529       5.55977477       5.63160807       0.00683989      -0.00137840      -0.00053750
Ti       0.01187339       3.86632390       5.97567598       0.00374147      -0.00229587      -0.00121546
Ti       2.33973110       0.55485555       6.59641521       0.00531368      -0.00204263       0.00120385
Ti       0.01630506       6.62860584       6.93280583       0.00547238      -0.00217334      -0.00128579
Ti       2.34803540       3.30910520       7.57616276      -0.00127591      -0.00217656       0.00633953
Ti       0.03414275       1.66102215       7.93743816       0.00167823      -0.00638389       0.00186843
Ti       2.35480779       6.08691808       8.45979174       0.00064046      -0.00042315      -0.00256633
Ti      -0.00040728       4.42070481       8.92014333       0.00537844      -0.00665224      -0.00121104
Ti       2.38515733       1.08874120       9.53363253       0.00272274       0.00020679       0.00481762
Ti       0.04111145       7.18311403       9.71956192      -0.00239393      -0.00742849       0.00046988
Ti       2.24810680       3.80528973      10.54884024       0.00463334      -0.01016958       0.00311051
Ti       0.14656694       2.13627027      10.89001110       0.01149761       0.00230041      -0.00569542
Ti       2.29869889       6.56307034      11.19236843       0.00171239      -0.00230087      -0.00042652
Ti       4.29103792       4.80480078      11.86628197      -0.00238825      -0.00302334      -0.01663630
Ti       2.71871284       1.59048935      12.52506456      -0.00271078      -0.00510045       0.00302068
Ti       0.40729446       7.63350491      12.54867341      -0.00866678       0.00205016       0.00527609
V        1.27420776       4.83913265      13.22616789       0.01270040      -0.00117263       0.00801932
Ti       3.10599999       6.53151276      13.90106883       0.00329517       0.00384822       0.00092344
Ti       0.61692911       2.22819644      14.08461413      -0.00532416      -0.00447796      -0.00041433
Ti       3.12909339       3.82002041      14.50566361       0.00065312      -0.00191086      -0.00308295
Ti       0.69521226       7.22435314      15.34588013      -0.00091158       0.00013008      -0.00018667
Ti       3.00352681       1.12081044      15.47253811      -0.00139819       0.00241188      -0.00129483
Ti       0.75273876       4.48769612      16.09616251      -0.00801935      -0.00180621       0.00115993
Ti       3.03463601       6.14106184      16.61887626      -0.00618516       0.00401012       0.00355310
Ti       0.70314284       1.70744280      17.07405933       0.00531163      -0.00370151       0.00065639
Ti       3.04900821       3.34082758      17.45684688       0.00202490       0.00212813      -0.00325713
Ti       0.71946144       6.66545469      18.13080317      -0.00442115       0.00264170      -0.00017559
Ti       3.05484604       0.59663992      18.43408989       0.00095487       0.00479486       0.00062380
Ti       0.72880434       3.89005191      19.05300964      -0.00239562       0.00379139      -0.00120099
Ti       3.05031960       5.57980464      19.42087571      -0.00576965       0.00546569      -0.00112717
Ti       0.73687684       1.12988202      20.02727837      -0.00411000       0.00630672      -0.00035946
Ti       3.06148554       2.77873991      20.41533031      -0.00567838       0.00604367      -0.00087957
Ti       0.71318471       6.10716238      20.94926771      -0.00512736       0.00697519      -0.00012219
Ti       3.09291039       0.02125319      21.37007076      -0.00524449       0.00829712      -0.00035106
Ti       0.72550294       3.34340162      22.00863874      -0.00209530       0.00402948      -0.00139456
Ti       3.04938914       5.01683271      22.21535836      -0.00403819       0.00725700      -0.00018492
Ti       0.84246705       0.62314535      22.94872697      -0.00508830       0.00092305      -0.00125804
Ti       2.94952652       2.28057152      23.41565862      -0.00380965       0.00346381       0.00285041
Ti       0.77556570       5.59560669      23.67751036      -0.00610996       0.00064819       0.00110394
Ti       3.59188921       7.39845149      24.32918125       0.00109179       0.00187539      -0.00145591
Ti       0.37404915       2.79590208      25.04298915      -0.00001798      -0.00195159       0.00131300
Ti       2.70356863       4.56887683       0.00288981       0.00085767       0.00172093      -0.00140058
