52
Lattice="4.6568 0.0 0.0 0.0 7.770572 0.0 0.0 0.0 25.044546" Properties=species:S:1:pos:R:3:forces:R:3 job_name=CSL7-Cu-Cu-36-d-5.61 GB_type=CSL7 element=Cu system=Cu-36-d-5.61 distance=5.61 energy=-396.41067342 stress_kbar_3x3="_JSON [[-19.54475691, 0.00521913, 0.13115581], [0.00521913, -28.0923563, 0.60919823], [0.13115579, 0.6091982, -26.31507085]]" pbc="T T T"
Ti       1.81504476       7.40766310       0.68230138      -0.00408775       0.00672109       0.00295996
Ti       4.63053748       5.61728509       1.34588922       0.00133590       0.00370724      -0.00229529
Ti       2.46579866       2.29630492       1.58403496      -0.00044621       0.00361619      -0.00079924
Ti       4.56872510       0.63962018       2.06677279       0.00232912       0.00247364      -0.00309668
Ti       2.35823491       5.01727214       2.80860584       0.00211326       0.00314665       0.00034716
Ti       0.02751231       3.34634873       3.00133119      -0.00033000       0.00320489      -0.00015986
Ti       2.31036672       0.01922126       3.63627921      -0.00024113       0.00408639      -0.00041675
Ti       0.02995109       6.11130190       4.08095444       0.00039743       0.00405169      -0.00145161
Ti       2.34361366       2.77088768       4.58963823       0.00160037       0.00113455      -0.00143592
Ti       0.00532667       1.12071294       4.99203049       0.00149201       0.00502572      -0.00003039
Ti       2.34588309       5.57470924       5.61274637       0.00111425       0.00077476      -0.00048945
Ti       0.01034561       3.87636066       5.94659223       0.00180894       0.00025351       0.00066259
Ti       2.33693638       0.56872868       6.57765178       0.00150634       0.00316407      -0.00128691
Ti       0.01625266       6.64189097       6.92286546       0.00113921       0.00185488       0.00081438
Ti       2.33419207       3.32706583       7.53320448       0.00141536       0.00002972      -0.00073747
Ti       0.01341067       1.67437323       7.93549983       0.00129715       0.00377697       0.00033148
Ti       2.35493733       6.10852687       8.45393320       0.00050687      -0.00190145       0.00159227
Ti       4.64030205       4.42568772       8.88823935       0.00048808       0.00016107       0.00093427
Ti       2.35221120       1.11064924       9.51886771      -0.00026052       0.00038938       0.00096380
Ti       0.02359410       7.20310848       9.73079078       0.00095706      -0.00132760       0.00243668
Ti       2.23307453       3.82338606      10.46331656       0.00118220      -0.00050855       0.00094947
Ti       0.13666533       2.15725626      10.93577674       0.00052094      -0.00118539       0.00055862
Ti       2.29977304       6.62128911      11.18648785       0.00017655      -0.00028823       0.00126845
Ti       4.15034211       4.82048695      11.84413931      -0.00106318      -0.00307234       0.00103351
Ti       2.70546203       1.64253886      12.53254057       0.00011613      -0.00293563       0.00183115
Ti       0.39518506       7.64221455      12.59889370       0.00003044      -0.00382136      -0.00290399
Ti       1.25131151       4.82176783      13.27346206      -0.00070651      -0.00656560      -0.00103091
Ti       3.10648319       6.56500168      13.94476115       0.00165225      -0.00260936      -0.00530964
Ti       0.61883905       2.17927054      14.16875582       0.00159067      -0.00306008       0.00269846
Ti       3.17488964       3.82529711      14.64426092       0.00014412      -0.00609826      -0.00046491
Ti       0.71775855       7.19002452      15.43351170      -0.00070306      -0.00396716       0.00052290
Ti       3.03765474       1.07694849      15.48191119      -0.00335324      -0.00494710       0.00162268
Ti       0.78599673       4.40743128      16.24810926      -0.00094860      -0.00462097      -0.00138831
Ti       3.06096515       6.08397719      16.68866022      -0.00226311      -0.00725703       0.00375909
Ti       0.72947918       1.62228447      17.10662760      -0.00146099      -0.00204935      -0.00425889
Ti       3.08194530       3.22847463      17.50886529      -0.00205020       0.00121750       0.00181536
Cu       0.73217930       6.65132357      18.15749288      -0.00217822      -0.00352771       0.00469481
Ti       3.06406855       0.46620075      18.46205376      -0.00050332      -0.00307067      -0.00044457
Ti       0.74486081       3.86176168      19.03752274      -0.00089260      -0.00172366      -0.00023719
Ti       3.06373843       5.55197587      19.36932591      -0.00041967      -0.00318270      -0.00319890
Ti       0.73234690       1.09897991      20.04307297      -0.00081709      -0.00155373       0.00242114
Ti       3.06171720       2.74296926      20.40257799      -0.00148528      -0.00242563       0.00110411
Ti       0.72824860       6.16401981      20.88160715      -0.00007681       0.00199704      -0.00182972
Ti       3.10360712       0.01256495      21.42607814      -0.00049768      -0.00182299      -0.00065524
Ti       0.71573440       3.35394604      21.97712819      -0.00042003       0.00283100      -0.00114729
Ti       3.04752403       5.00705957      22.14170273      -0.00161470       0.00039381       0.00105894
Ti       0.83823888       0.65526102      22.95184550      -0.00400215       0.00067032       0.00126874
Ti       2.94753946       2.30916351      23.39807633       0.00040777       0.00269820      -0.00071284
Ti       0.77874083       5.63615801      23.61219212      -0.00013542       0.00494667       0.00294397
Ti       3.59494194       7.42055704      24.33470037       0.00555692       0.00613995      -0.00505552
Ti       0.38372290       2.83599982      25.01283079       0.00060281       0.00121153      -0.00034264
Ti       2.71467992       4.59733343      25.00110585      -0.00052470       0.00384412       0.00058617
