52
Lattice="4.6568 0.0 0.0 0.0 7.770572 0.0 0.0 0.0 25.044546" Properties=species:S:1:pos:R:3:forces:R:3 job_name=CSL7-Zr-Zr-26-d-0.72 GB_type=CSL7 element=Zr system=Zr-26-d-0.72 distance=0.72 energy=-401.16982103 stress_kbar_3x3="_JSON [[-7.46880123, -0.17410303, 2.55793232], [-0.17410304, -15.09121127, -2.39464215], [2.55793232, -2.39464212, -6.94261519]]" pbc="T T T"
Ti       1.82383081       7.39788198       0.70436662      -0.00060588      -0.00253267      -0.00129454
Ti       4.62127391       5.62470518       1.35930250      -0.00433829      -0.00001615      -0.01024282
Ti       2.45224333       2.27835619       1.59693316      -0.00266881       0.00319361       0.00104085
Ti       4.56263034       0.64744382       2.04837881      -0.00170657       0.00074311       0.00244602
Ti       2.35037558       5.01976187       2.80866875       0.00063271       0.00156269      -0.00147360
Ti       0.02205026       3.35536256       2.97121079      -0.00060074       0.00231069       0.00127286
Ti       2.29691106       0.01883666       3.61542584      -0.00111702       0.00391180       0.00144344
Ti       0.01804216       6.12750997       4.06143045      -0.00069902       0.00267709       0.00221076
Ti       2.33069612       2.77597675       4.54760022      -0.00073084       0.00120229       0.00200963
Ti       4.64710328       1.13895664       4.95335636      -0.00167559       0.00281718       0.00056116
Ti       2.33119853       5.58794158       5.58672907      -0.00162064       0.00192217      -0.00080517
Ti       4.64550733       3.88927706       5.88013189      -0.00212450       0.00205485      -0.00140825
Ti       2.31569981       0.57978192       6.53433473      -0.00136363       0.00244568      -0.00155917
Ti       4.65378255       6.67068338       6.87225647      -0.00190158       0.00343639       0.00012313
Ti       2.29675400       3.34295352       7.44658647      -0.00218609       0.00229208      -0.00036131
Ti       4.63565879       1.70436814       7.87858703      -0.00198687       0.00526147      -0.00065421
Ti       2.33834381       6.12259777       8.40556672      -0.00364521       0.00223777       0.00206372
Ti       4.58659946       4.43513896       8.76336320      -0.00172974       0.00107763      -0.00362117
Ti       2.30839521       1.13951260       9.45041832      -0.00130664       0.00041086      -0.00056300
Ti       4.64798623       7.24333634       9.65310536      -0.00326879       0.00091388       0.00035947
Ti       2.15889331       3.84458070      10.28857491      -0.00263066       0.00373742       0.00062781
Ti       0.10975300       2.18556718      10.89319769       0.00169471      -0.00063508       0.00111895
Ti       2.28536963       6.70355472      11.12438079      -0.00494320       0.00521812      -0.00354955
Ti       4.03913052       4.87365705      11.60571691       0.01420717       0.00325283       0.00964794
Ti       2.71651988       1.71117981      12.51914344       0.00093623      -0.00420725      -0.00263789
Ti       0.35328129       7.67578618      12.50317809       0.00061456      -0.00529459       0.00225192
Zr       1.23010172       4.78718351      13.27467871      -0.00624776      -0.01161655       0.00405048
Ti       3.12807620       6.68586101      13.87341094       0.00030007       0.00201186       0.00057034
Ti       0.65634151       2.04943299      14.25910785      -0.00165179       0.00801991       0.00335539
Ti       3.24605362       3.76651839      14.72670958      -0.00105825      -0.00005002      -0.00722253
Ti       0.76141574       7.17914788      15.39106416      -0.00190572      -0.00571214      -0.00294525
Ti       3.10332538       1.06179443      15.63877350       0.00389327      -0.00148114       0.00090781
Ti       0.80977396       4.35889246      16.30001429       0.00078860      -0.00493770      -0.00270419
Ti       3.08980298       6.04896886      16.61982451       0.00251639       0.00090314       0.00598783
Ti       0.77900054       1.63355616      17.20074573       0.00262603       0.00087582       0.00066866
Ti       3.11373559       3.27861982      17.60286966       0.00144483      -0.00450511      -0.00057271
Ti       0.76419061       6.61062805      18.16429126       0.00136033      -0.00199698      -0.00121175
Ti       3.10428222       0.51754786      18.52564699       0.00163217      -0.00370478       0.00142701
Ti       0.76991662       3.84008572      19.17096481       0.00148258      -0.00209108      -0.00031346
Ti       3.08643146       5.53441355      19.45297226       0.00164314      -0.00328094      -0.00382347
Ti       0.77324260       1.09268732      20.09996778       0.00181402      -0.00091379      -0.00216621
Ti       3.08685491       2.73034891      20.49785980       0.00156281      -0.00400341      -0.00234461
Ti       0.74246017       6.08949800      20.97816547       0.00163585      -0.00307058      -0.00141179
Ti       3.11731521       7.74883245      21.44356125       0.00189567      -0.00032009      -0.00203294
Ti       0.74002261       3.32747324      22.07655602       0.00047976      -0.00036921      -0.00254594
Ti       3.06784830       4.98360052      22.23441213       0.00060457      -0.00272417       0.00138256
Ti       0.84987762       0.63275798      23.00274308       0.00061192      -0.00231922      -0.00172299
Ti       2.95868170       2.25907040      23.45991717       0.00357539       0.00188651       0.00061264
Ti       0.80027487       5.61662735      23.67791064       0.00390790      -0.00109205       0.00921582
Ti       3.59407505       7.38550491      24.34445559       0.00154887      -0.00582780       0.00233383
Ti       0.37925161       2.82228487      25.04400332      -0.00045672      -0.00011057       0.00028412
Ti       2.70450794       4.56516944       0.00050520       0.00076101       0.00643620       0.00121436
