52
Lattice="4.6568 0.0 0.0 0.0 7.770572 0.0 0.0 0.0 25.044546" Properties=species:S:1:pos:R:3:forces:R:3 job_name=CSL7-Cu-Cu-30-d-2.82 GB_type=CSL7 element=Cu system=Cu-30-d-2.82 distance=2.82 energy=-396.54106076 stress_kbar_3x3="_JSON [[-19.79771857, 0.99984498, 0.68985505], [0.99984493, -30.74386896, 0.22524918], [0.68985507, 0.22524916, -25.17353071]]" pbc="T T T"
Ti       1.80835959       7.40607952       0.70153520       0.00129738       0.00689503       0.00231322
Ti       4.62876113       5.61525098       1.36135184       0.00734177       0.01079924       0.00468309
Ti       2.45641253       2.29220733       1.60437612       0.00081913       0.00040675      -0.00375236
Ti       4.56380654       0.63877191       2.09064651       0.00316590       0.00100904      -0.00762621
Ti       2.35696067       5.02531362       2.82675180      -0.00370721      -0.00141739       0.00788204
Ti       0.01855479       3.35188587       3.01694849       0.00173691      -0.00584577       0.00401538
Ti       2.30706603       0.02491980       3.65559662      -0.00089744       0.00199810       0.00260322
Ti       0.02498566       6.11978224       4.10244169      -0.00081207      -0.00303141       0.00584461
Ti       2.33674133       2.77633384       4.60421465       0.00165023       0.00355122       0.00056943
Ti       4.65489228       1.12792023       5.01436801       0.00110940       0.00211167      -0.00330185
Ti       2.34152812       5.57998424       5.63392495       0.00007888      -0.00499197      -0.00369932
Ti       0.00184960       3.88278018       5.96131175      -0.00029067       0.00092937      -0.00247086
Ti       2.33090765       0.57134715       6.59044943       0.00015436       0.00294807       0.00025720
Ti       0.00889995       6.65085611       6.94724812       0.00039999       0.00200423      -0.00216902
Ti       2.32526185       3.32467405       7.54074176      -0.00102733      -0.00029918      -0.00170087
Ti       0.00398756       1.67931271       7.95041510       0.00109563      -0.00190505       0.00065383
Ti       2.33909365       6.10604818       8.47360202      -0.00020181       0.00158796      -0.00533869
Ti       4.62988657       4.42848916       8.89497405       0.00036680       0.00048926       0.00315098
Ti       2.33794785       1.10027655       9.51552100       0.00429860      -0.00573238       0.00398942
Ti       0.00502902       7.20774707       9.75367823       0.00520368       0.00587150       0.00062038
Ti       2.21674612       3.80718859      10.47278844       0.00402561      -0.00761804       0.00015351
Ti       0.14556462       2.14586620      10.95390534      -0.00620330      -0.00671333       0.00459219
Ti       2.28702192       6.58673227      11.20698594      -0.00441284       0.00289189       0.00011794
Ti       4.15833825       4.83765250      11.83275050       0.00016086      -0.00085294       0.00426839
Ti       2.75159445       1.59028047      12.53358561      -0.00146061      -0.00472801      -0.00246571
Ti       0.46136540       7.62081735      12.63983886      -0.00215087      -0.00318547       0.00159847
Ti       1.24653996       4.81004501      13.29599246      -0.00215723      -0.00505525      -0.01267575
Ti       3.09977856       6.55880087      13.93472245       0.00710464       0.00357788       0.00558023
Ti       0.68053032       2.14572378      14.12978877      -0.00322288       0.00023374      -0.00115519
Ti       3.19175060       3.72092643      14.56713259       0.00974051      -0.01168664       0.00067221
Cu       0.75358193       7.12843226      15.32026218      -0.00293215       0.00318213      -0.00378739
Ti       3.07105592       0.98978096      15.50152680       0.00065586       0.00317759      -0.00626544
Ti       0.80802921       4.41720168      16.09776522      -0.00081236      -0.00153440      -0.00093128
Ti       3.03351652       6.14825349      16.58273319      -0.00257504       0.00178482       0.00244869
Ti       0.72158051       1.61366018      17.09058106       0.00378752      -0.00114567       0.00302930
Ti       3.07907449       3.29826983      17.45920267      -0.00117271      -0.00276355      -0.00348396
Ti       0.72260420       6.69123604      18.07620977      -0.00091925       0.00114359       0.00456238
Ti       3.05948556       0.56772301      18.49969378       0.00173643      -0.00352423      -0.00408514
Ti       0.73900257       3.87267705      19.03229704       0.00002518      -0.00171130       0.00022260
Ti       3.05928346       5.57089703      19.36373601       0.00055389      -0.00265635       0.00420016
Ti       0.73759920       1.14281854      20.03652754       0.00039289      -0.00098481      -0.00222227
Ti       3.06276381       2.79596849      20.42281496      -0.00202442       0.00012937       0.00514581
Ti       0.71999304       6.12918104      20.89274424       0.00236265       0.00305967       0.00209948
Ti       3.10582747       0.03024612      21.40539249       0.00010868      -0.00063813      -0.00274941
Ti       0.72135776       3.36294377      21.99160697      -0.00194420      -0.00025413      -0.00181453
Ti       3.04335654       5.03140173      22.18293044       0.00376265      -0.00161823       0.00176935
Ti       0.84385309       0.64373071      22.94776025      -0.01293060      -0.00225942       0.01123774
Ti       2.95015919       2.30698605      23.40510397       0.00131632       0.00430002       0.00036336
Ti       0.76383678       5.61677491      23.65390897      -0.00701031       0.01244207       0.00053091
Ti       3.58996758       7.42061105      24.33662216      -0.00139931       0.01300339      -0.01208403
Ti       0.37119771       2.81922731      25.03781768      -0.00198749       0.00882978      -0.00346629
Ti       2.70040183       4.59860719      25.03279663      -0.00220023      -0.01620431      -0.00192996
