52
Lattice="4.6568 0.0 0.0 0.0 7.770572 0.0 0.0 0.0 25.044546" Properties=species:S:1:pos:R:3:forces:R:3 job_name=CSL7-Zr-Zr-30-d-2.82 GB_type=CSL7 element=Zr system=Zr-30-d-2.82 distance=2.82 energy=-401.16659143 stress_kbar_3x3="_JSON [[-6.37859796, 0.12077354, 0.07304708], [0.12077355, -14.14407537, -1.58631491], [0.07304707, -1.58631491, -9.13468487]]" pbc="T T T"
Ti       1.82206686       7.38988455       0.71537709      -0.01367901      -0.00198431       0.01270569
Ti       4.62856288       5.60473134       1.37311898       0.00579562      -0.00019295       0.00362994
Ti       2.46067314       2.26514660       1.61753567      -0.00247785       0.00627727      -0.00210247
Ti       4.56954931       0.62933355       2.06974390       0.00643086      -0.00782552      -0.00175318
Ti       2.36239920       5.00272355       2.82362686       0.00119895       0.00304330       0.00184368
Ti       0.03285205       3.33795936       3.00314563       0.00316861       0.00613995      -0.00033367
Ti       2.31528534       0.00612338       3.63826011       0.00045155      -0.00311425       0.00005885
Ti       0.03735203       6.10621236       4.07794776       0.00290322      -0.00310353      -0.01185630
Ti       2.34813107       2.75988211       4.58772120       0.00285970       0.00457727      -0.00614108
Ti       0.00977119       1.12054883       4.97165174       0.00210699       0.00174295      -0.00135535
Ti       2.35238464       5.56317651       5.59820731       0.00185299       0.00206665      -0.00401995
Ti       0.01439753       3.87373492       5.92567690       0.00238598       0.00797490      -0.00179975
Ti       2.34333822       0.56725751       6.55531087       0.00197493      -0.00556483       0.00023226
Ti       0.02381661       6.64647699       6.87794133       0.00188671       0.00049538       0.00506420
Ti       2.33928562       3.32300916       7.50872438       0.00244740       0.00409120       0.00062054
Ti       0.01849400       1.68248073       7.89248092       0.00213498      -0.00242482       0.00598355
Ti       2.36629020       6.10811760       8.40063120       0.00338348       0.00510675       0.00901685
Ti       4.63962172       4.43617454       8.84027697       0.00050860       0.00561994      -0.00231751
Ti       2.36171471       1.11486464       9.48428785       0.00179474      -0.00091668       0.00111277
Ti       0.03707096       7.20767561       9.64864146       0.00182891       0.00167016      -0.00349621
Ti       2.23820813       3.82905107      10.40562622       0.00015056       0.00000376      -0.00174368
Ti       0.12033036       2.18680500      10.85981973      -0.00293452       0.00058330       0.00366339
Ti       2.30613601       6.63411507      11.11013912      -0.00130835       0.01245574      -0.01425171
Ti       4.14246356       4.82890438      11.77626720      -0.00276008      -0.00708098      -0.00639011
Ti       2.70188629       1.68400800      12.50489503      -0.00189645       0.01022084       0.00268583
Ti       0.35017818       7.67923923      12.43769708       0.00157835       0.00649038      -0.00642377
Ti       1.26147368       4.82651768      13.17845647       0.00471680      -0.00308029       0.00673672
Ti       3.08451188       6.64698343      13.79100475      -0.00806699       0.00583513       0.01440498
Ti       0.58987561       2.21900347      14.08188629       0.00154537      -0.00198689      -0.00271280
Ti       3.16538157       3.89515434      14.60793450      -0.00108088       0.00071858       0.00043568
Zr       0.73157724       7.16843825      15.33359887      -0.00055352       0.00082750       0.01666452
Ti       3.04796150       1.20919690      15.55322637      -0.00338774      -0.00022039      -0.00040203
Ti       0.76107477       4.33708639      16.23056845      -0.00192014       0.00282518      -0.00100791
Ti       3.06330742       6.04633255      16.68715016      -0.00652525       0.00156316      -0.01509503
Ti       0.73938587       1.68235038      17.19294701      -0.00232328      -0.00872736      -0.00154109
Ti       3.06878428       3.30389371      17.56848495      -0.00216359      -0.00537602       0.00418097
Ti       0.74095529       6.59623652      18.21751539      -0.00219902       0.00009075      -0.01161109
Ti       3.07283640       0.53842783      18.47725687      -0.00059066      -0.00326388      -0.00262846
Ti       0.73596437       3.85996553      19.14891601      -0.00200507      -0.00317228       0.00197698
Ti       3.05977170       5.54946794      19.48354713      -0.00091263      -0.00501721       0.00998432
Ti       0.74710963       1.09905544      20.08233319      -0.00156192       0.00346758       0.00061426
Ti       3.06507526       2.74211571      20.47594701      -0.00255345      -0.00196953       0.00055995
Ti       0.71812304       6.09023777      21.00280483      -0.00158133      -0.00783542       0.01386903
Ti       3.09356750       7.76746430      21.42317673      -0.00016655      -0.00279548      -0.00240295
Ti       0.72727474       3.32380923      22.06128067      -0.00215359       0.00192622      -0.00272515
Ti       3.05307946       4.99019050      22.25377609       0.00058193      -0.00354727      -0.00461377
Ti       0.84302781       0.62114024      22.99566662      -0.00447522      -0.00860864      -0.00112203
Ti       2.95030266       2.25955518      23.45525792       0.00424227       0.00510533       0.00314260
Ti       0.78615800       5.59457149      23.70143303      -0.00374781      -0.00068391      -0.00370725
Ti       3.59099479       7.38448788      24.34976291       0.01333751      -0.00439681      -0.00788006
Ti       0.37692367       2.80291882       0.01261581       0.00081084      -0.00203607       0.00111852
Ti       2.70413302       4.55897657       0.01722980       0.00094704      -0.00599385       0.00112830
