52
Lattice="4.6568 0.0 0.0 0.0 7.770572 0.0 0.0 0.0 25.044546" Properties=species:S:1:pos:R:3:forces:R:3 job_name=CSL7-Cu-Cu-34-d-4.60 GB_type=CSL7 element=Cu system=Cu-34-d-4.60 distance=4.6 energy=-396.3085473 stress_kbar_3x3="_JSON [[-20.02967568, -0.29961303, 0.9884073], [-0.29961306, -31.72099112, -0.27455352], [0.98840728, -0.27455351, -25.97369717]]" pbc="T T T"
Ti       1.81425400       7.42059180       0.67722974       0.01128945       0.00515329      -0.00624746
Ti       4.63724620       5.61605394       1.35373955      -0.00346025      -0.00309951       0.00072391
Ti       2.45628526       2.29747328       1.61486987      -0.00089399       0.00228324       0.00334247
Ti       4.56925699       0.63232905       2.06803403      -0.00314332       0.01493227       0.00037049
Ti       2.35970268       5.02520359       2.82346596       0.00077802       0.00817972      -0.00060418
Ti       0.02671847       3.34781918       3.01277506       0.00136151       0.00528031      -0.00422673
Ti       2.30975518       0.02420999       3.64400922       0.00213151       0.00900130      -0.00232763
Ti       0.02781991       6.11514200       4.09150255      -0.00017473       0.00721618       0.00193731
Ti       2.34117802       2.77760305       4.60340054      -0.00099897       0.01049003       0.00131092
Ti       0.00409473       1.12726867       4.99737983      -0.00007376       0.00860880      -0.00490183
Ti       2.34740004       5.58162778       5.62403245      -0.00078216       0.00681702      -0.00067349
Ti       0.00623383       3.88324524       5.95212168      -0.00066974       0.00769818      -0.00022062
Ti       2.33515677       0.57366551       6.58673529      -0.00139290       0.00560008      -0.00080281
Ti       0.01462337       6.64997546       6.92687624      -0.00164557       0.00725745       0.00087034
Ti       2.32690652       3.33763613       7.53900762      -0.00060349       0.00548780       0.00368338
Ti       0.00553599       1.68697886       7.93301956      -0.00240157       0.00561166       0.00464927
Ti       2.34921006       6.11510685       8.46345525       0.00007736       0.00474573       0.00446995
Ti       4.62389682       4.43153205       8.88706003       0.00117390       0.00446417      -0.00094201
Ti       2.33349672       1.12559316       9.52024454      -0.00086016       0.00018515       0.00115572
Ti       0.01373954       7.22159320       9.72391578      -0.00472050       0.00206388      -0.00114687
Ti       2.21344355       3.83007327      10.48867056      -0.00491854      -0.00640979      -0.00687077
Ti       0.10806529       2.17627692      10.94250819       0.00158719       0.00220411      -0.00524674
Ti       2.29249627       6.63839393      11.19117999      -0.00066434       0.00090197      -0.00788778
Ti       4.17483741       4.86578096      11.77871448       0.00181167       0.00450873       0.00511634
Ti       2.69271934       1.63332918      12.55918937       0.00439679      -0.00458428      -0.00433991
Ti       0.38326619       7.66044533      12.57550766       0.00164056      -0.00984736       0.00618621
Ti       1.22241226       4.83644109      13.30530695       0.00486805      -0.00866472       0.00149177
Ti       3.10250252       6.64954246      13.91199176       0.00026068      -0.00174070      -0.00038080
Ti       0.61377195       2.16774024      14.18682282      -0.00078076       0.00066547       0.00503208
Ti       3.21630833       3.82830714      14.50441656      -0.00317255      -0.00897917      -0.00114245
Ti       0.73820790       7.19675943      15.43397072       0.00290686      -0.00295160       0.00237993
Ti       3.06525710       1.09456754      15.61639630      -0.00215722      -0.00599707       0.01227745
Ti       0.77354739       4.29261745      16.14982919      -0.00210232      -0.00651088      -0.00083870
Ti       3.06744384       5.97042990      16.59372832      -0.00176572      -0.00789235       0.00050593
Cu       0.75369739       1.64007656      17.15409786       0.00135771      -0.00394298       0.00245807
Ti       3.08833049       3.19523733      17.52091768       0.00012964      -0.00918209      -0.00225636
Ti       0.74465823       6.59395108      18.08088879       0.00163450      -0.00229912      -0.00259574
Ti       3.09626778       0.51405274      18.39814980       0.00187936      -0.00466174      -0.00954813
Ti       0.74409511       3.82755351      19.08870698      -0.00016837      -0.00982156      -0.00447262
Ti       3.06379976       5.52978177      19.39674086       0.00234902      -0.00669830      -0.00644709
Ti       0.75237065       1.15377286      19.98345450       0.00012617      -0.00139656      -0.00108854
Ti       3.06946941       2.76806471      20.46132680       0.00156733      -0.00329237      -0.00227421
Ti       0.72520895       6.12103406      20.90456683       0.00085921      -0.00744358      -0.00156357
Ti       3.09846752       0.00812217      21.34130603      -0.00329164      -0.00073621       0.00180197
Ti       0.73292390       3.35423417      22.01738358      -0.00065967      -0.00499192       0.00655080
Ti       3.05129251       5.03583928      22.19529368      -0.00104145      -0.00848799       0.00410618
Ti       0.84184028       0.63915351      22.90253246       0.00286337       0.01215988      -0.00088504
Ti       2.93482268       2.28838477      23.44717728      -0.00298600      -0.01138640       0.00162296
Ti       0.78035189       5.62346027      23.64691739       0.00596107      -0.00658040      -0.00520339
Ti       3.59685571       7.40692393      24.30289849      -0.00666608      -0.00061999       0.00726458
Ti       0.37584594       2.80960843      25.02551253       0.00215931       0.00052924       0.00366596
Ti       2.70380230       4.59003785      25.02864310      -0.00297447       0.00617297       0.00216148
