52
Lattice="4.6568 0.0 0.0 0.0 7.770572 0.0 0.0 0.0 25.044546" Properties=species:S:1:pos:R:3:forces:R:3 job_name=CSL7-Zr-Zr-35-d-4.99 GB_type=CSL7 element=Zr system=Zr-35-d-4.99 distance=4.99 energy=-401.33066987 stress_kbar_3x3="_JSON [[-6.93254429, -0.0064697, 0.32734194], [-0.00646971, -13.13587168, -0.27746755], [0.32734194, -0.27746755, -11.51559314]]" pbc="T T T"
Ti       1.81376205       7.39880948       0.72073539       0.00418246      -0.00567923       0.00068118
Ti       4.62766215       5.60824502       1.38327528       0.00563287       0.01747712      -0.00343161
Ti       2.45379219       2.27362523       1.63425526      -0.00003092       0.00327723       0.00096664
Ti       4.56693452       0.63352861       2.08431993       0.00300735      -0.00106532      -0.00093975
Ti       2.35845620       5.00630114       2.83494475       0.00080636       0.01212743       0.00208665
Ti       0.02693576       3.34128731       3.01887588      -0.00023312       0.01416815       0.00485567
Ti       2.30998933       0.00826926       3.65027702      -0.00039892      -0.00113201       0.00348869
Ti       0.03220562       6.10768051       4.09337939       0.00407555       0.00682628       0.00206740
Ti       2.34174854       2.76356373       4.60059978       0.00373158       0.00024037       0.00010867
Ti       0.00400161       1.12207039       4.98997757       0.00335431       0.00210589       0.00511881
Ti       2.34648667       5.56639793       5.61341679       0.00418624       0.00528929       0.00798837
Ti       0.00691956       3.87538908       5.94309880       0.00364780       0.01224246      -0.00080620
Ti       2.33674194       0.56671715       6.57307010       0.00343668      -0.00319171       0.00115438
Ti       0.01492940       6.64759434       6.90389742       0.00455824       0.00192887      -0.00602149
Ti       2.33249901       3.32182112       7.52354722       0.00099340       0.00256678      -0.00222543
Ti       0.01540963       1.68311799       7.91796218      -0.00002414      -0.00074186      -0.00469673
Ti       2.35672478       6.10620312       8.42748630       0.00176899       0.00434020      -0.00576109
Ti       4.63504009       4.43389569       8.85863214      -0.00089014       0.00849830      -0.00610498
Ti       2.35590571       1.10550340       9.50220394      -0.00294952      -0.00746421      -0.00883033
Ti       0.02415600       7.21517086       9.68206520       0.00214998      -0.00037743       0.00540140
Ti       2.23108344       3.81295838      10.42897688       0.00072212       0.00301418      -0.00372085
Ti       0.13270060       2.17819530      10.90368839      -0.00405621      -0.00899458      -0.00572224
Ti       2.28492439       6.60381031      11.12832703      -0.00097595      -0.00087869       0.00922304
Ti       4.15778933       4.84079362      11.75695538       0.00376785       0.00720228       0.01046964
Ti       2.70115202       1.61888528      12.49677021      -0.00343795      -0.00319909      -0.00265092
Ti       0.37885325       7.66049478      12.50570201       0.00455080      -0.00914000      -0.01257670
Ti       1.24185138       4.81726873      13.17512487      -0.00281263      -0.00452525      -0.01026652
Ti       3.12574112       6.58007440      13.86482177      -0.01057426      -0.00639629      -0.01548488
Ti       0.63061195       2.17702422      14.13128790       0.00352383      -0.00742774       0.00040867
Ti       3.18277228       3.82435934      14.47113497       0.00526272      -0.00761073       0.00607144
Ti       0.72276963       7.19822267      15.31652150      -0.00295007      -0.01026232      -0.00824974
Ti       3.03855415       1.07365997      15.45664022       0.00482913       0.00332636       0.00351450
Ti       0.76989382       4.47390535      16.06299703       0.00313413      -0.01089628       0.00991885
Ti       3.06420743       6.16017100      16.57798638      -0.00601305      -0.01178328       0.01312814
Ti       0.72858483       1.57392108      17.10551603       0.00165422       0.00159401       0.00432770
Zr       3.07130408       3.32131424      17.50904876      -0.00185333       0.00958136      -0.00110154
Ti       0.74116715       6.58024555      18.13304572      -0.00349433      -0.00926317       0.00289939
Ti       3.07100136       0.50407752      18.48766219      -0.00133066      -0.00652749       0.00621933
Ti       0.74541070       3.89011069      19.20456769      -0.00193748       0.00018446      -0.00697043
Ti       3.06579650       5.60082661      19.49866235      -0.00220671      -0.00605280      -0.00977338
Ti       0.74953794       1.11401702      20.05005698      -0.00381174      -0.00678211      -0.00038420
Ti       3.06832501       2.75469438      20.53438286      -0.00381525      -0.00697021       0.00111025
Ti       0.72612710       6.13408834      20.98403071      -0.00271953       0.00100968      -0.00116522
Ti       3.10293617       0.02096457      21.44042942      -0.00271065      -0.00221902       0.00076572
Ti       0.72621586       3.33431061      22.08407641      -0.00236440      -0.00457790      -0.00480209
Ti       3.04983244       5.01083409      22.25117636       0.00017225      -0.00076486      -0.00441818
Ti       0.84367522       0.63702133      22.98124904       0.00324069       0.00483393      -0.00133707
Ti       2.94801494       2.27486413      23.48610068      -0.00342384      -0.00256257      -0.00583506
Ti       0.78026929       5.60673652      23.70050779       0.00121414       0.00281636       0.01490717
Ti       3.59606807       7.39205515      24.35319885      -0.00909814       0.00047881       0.01638862
Ti       0.37843799       2.80669002       0.03014338      -0.00055164       0.00214351      -0.00240890
Ti       2.70498072       4.56885609       0.02172021      -0.00293910       0.01921285       0.00241521
