52
Lattice="4.6568 0.0 0.0 0.0 7.770572 0.0 0.0 0.0 25.044546" Properties=species:S:1:pos:R:3:forces:R:3 job_name=CSL7-Cu-Cu-26-d-0.72 GB_type=CSL7 element=Cu system=Cu-26-d-0.72 distance=0.72 energy=-396.65722949 stress_kbar_3x3="_JSON [[-19.32261984, -0.10949707, -8.91303305], [-0.10949703, -24.96389379, 5.24264519], [-8.91303306, 5.24264519, -19.4422641]]" pbc="T T T"
Ti       1.81265272       7.33140443       0.71524314      -0.00601237      -0.00605509      -0.00116402
Ti       0.01407383       5.53237791       1.38931448       0.00002316      -0.00790678      -0.00875061
Ti       2.51348601       2.19124428       1.59413242      -0.00287086       0.00810947      -0.00364077
Ti       4.61629204       0.54563812       2.09699497       0.00525698       0.00289565      -0.00176239
Ti       2.44259665       4.88817054       2.84265298       0.00230015       0.00345777      -0.00112392
Ti       0.10731093       3.22672637       3.01881526       0.00426840       0.00648170      -0.00483528
Ti       2.41525493       7.65334276       3.64840754       0.00058273       0.00005003       0.00188767
Ti       0.14887902       5.98456704       4.10814982       0.00248477      -0.00327852       0.00376334
Ti       2.46038943       2.62400081       4.60002828       0.00274205       0.01000064      -0.00057901
Ti       0.13224929       0.97920535       5.00183126       0.00272630       0.00131411       0.00163722
Ti       2.49487308       5.42023588       5.64105234       0.00218860       0.00698758       0.00482744
Ti       0.15782675       3.72827335       5.93705096       0.00232141       0.00835055       0.00509925
Ti       2.49855775       0.40308673       6.57669222       0.00223255      -0.00068837       0.00577640
Ti       0.18402742       6.49077711       6.92934236       0.00287933       0.00220948       0.00375009
Ti       2.52048906       3.15720701       7.53983837       0.00226888       0.00466918       0.00303371
Ti       0.20943734       1.49766626       7.89285930       0.00274206       0.00419971       0.00197273
Ti       2.55215529       5.93636069       8.48465567       0.00183983       0.00197589       0.00256953
Ti       0.21036130       4.25275560       8.85231682       0.00133454       0.01059832       0.00547259
Ti       2.57809848       0.95231629       9.51273437       0.00264177       0.00132233       0.00123828
Ti       0.26673791       7.00520900       9.75037264       0.00220764       0.00589290      -0.00784255
Ti       2.55889100       3.69758924      10.44707968       0.00653699       0.00802709      -0.00095945
Ti       0.28032711       2.07152692      10.79510406       0.00521883       0.00796198      -0.00449295
Ti       2.62272729       6.49864702      11.32218921       0.00068945       0.00072352      -0.01417886
Ti       0.17057521       4.73624351      11.71797160       0.00751137       0.00736277      -0.00519700
Ti       2.73118746       1.59098542      12.45437331       0.00032354       0.00093412      -0.01014683
Ti       0.35872968       7.66127573      12.48431113       0.00715586      -0.00063769      -0.01421651
Cu       0.71760588       5.44651265      13.99798589       0.00135440       0.00306578       0.00594909
Ti       2.93145424       6.88718681      13.92703277      -0.01059905      -0.00249435       0.00569372
Ti       0.50817424       2.40330429      13.89532421      -0.00602000       0.00723286      -0.00848151
Ti       2.91756259       4.04498983      13.93506110      -0.00267404       0.00816726      -0.00657144
Ti       0.49582339       7.55427934      15.42203025      -0.00065068      -0.01147219       0.00417053
Ti       2.91549101       1.62044704      15.42480274      -0.00851998       0.00798332       0.00232028
Ti       0.37448385       4.38369898      16.17504843       0.00193762      -0.00511534      -0.00221279
Ti       2.83292146       6.31653750      16.51318624      -0.00238533      -0.00806375      -0.00412587
Ti       0.51642330       1.79463389      17.23399675      -0.00584954       0.00410156       0.01024850
Ti       2.84736461       3.45938715      17.56542438      -0.00326525       0.00471031       0.00952736
Ti       0.55189380       6.68676977      18.13617254      -0.00398233      -0.01722904       0.00021753
Ti       2.87615993       0.64499416      18.41877916      -0.00333593      -0.01245044       0.00443338
Ti       0.58310526       3.94912248      19.14211643      -0.00341100      -0.00475884       0.00633995
Ti       2.91521516       5.66173600      19.40521511      -0.00241157      -0.01204161       0.00127575
Ti       0.58654865       1.15092375      20.06830206      -0.00271525      -0.00078320       0.00629565
Ti       2.93505620       2.82271427      20.42318771      -0.00397294       0.00302208       0.00735898
Ti       0.59984382       6.15832416      20.96577714      -0.00092024      -0.01473007      -0.00013189
Ti       2.98233050       0.07296030      21.38605054      -0.00312676      -0.00870367       0.00094307
Ti       0.62237552       3.34876288      22.04144278      -0.00232950       0.00233097       0.00705314
Ti       2.93850537       5.05733354      22.20095183      -0.00312103      -0.01094049       0.00206777
Ti       0.78379448       0.61606005      22.97028283       0.00286659       0.00350656      -0.00134504
Ti       2.90553478       2.28577180      23.40974297      -0.00228977       0.00818740       0.00266386
Ti       0.69827016       5.57373952      23.71014558       0.00546251      -0.01508460      -0.00003489
Ti       3.56838491       7.39973821      24.35356963       0.00302667      -0.01170726      -0.00537048
Ti       0.37237448       2.75349899       0.01453504      -0.00089295       0.00756845      -0.00675580
Ti       2.71560635       4.55095390      25.04339799      -0.00376859      -0.00926003      -0.00366691
