52
Lattice="4.6568 0.0 0.0 0.0 7.770572 0.0 0.0 0.0 25.044546" Properties=species:S:1:pos:R:3:forces:R:3 job_name=CSL7-Zn-Zn-31-d-3.01 GB_type=CSL7 element=Zn system=Zn-31-d-3.01 distance=3.01 energy=-394.09055772 stress_kbar_3x3="_JSON [[-16.85959075, 0.16159162, 0.40996461], [0.16159158, -26.54906887, 0.0141946], [0.40996457, 0.01419462, -21.98338898]]" pbc="T T T"
Ti       1.81677158       7.39308977       0.70379608       0.01193112       0.00436644      -0.00798145
Ti       4.62895410       5.59602593       1.36256944      -0.00155997       0.00195749      -0.00038724
Ti       2.45581903       2.27296752       1.61379350       0.00103357       0.00313410      -0.00072280
Ti       4.56130121       0.62276141       2.07659151       0.00009649      -0.00014438       0.00107029
Ti       2.35502321       5.00773514       2.82357571       0.00355125       0.00129082       0.00075740
Ti       0.02155269       3.33513086       3.01189344       0.00142636       0.00095392       0.00155342
Ti       2.30618068       0.00990948       3.64979434       0.00409772       0.00260425       0.00101337
Ti       0.02755282       6.10464297       4.08757230       0.00052652      -0.00028490      -0.00093029
Ti       2.33730370       2.76291200       4.59913655       0.00298823      -0.00267161       0.00092084
Ti       4.65620653       1.11698799       4.99488028       0.00010169      -0.00010590       0.00292304
Ti       2.34666938       5.56685495       5.61560819       0.00118907      -0.00003429      -0.00030106
Ti       0.00968674       3.87478286       5.94475239       0.00208681      -0.00445082       0.00435973
Ti       2.33315840       0.56384695       6.58442558       0.00071218       0.00104997       0.00280848
Ti       0.01499484       6.63707247       6.90997724       0.00039189      -0.00089736       0.00392756
Ti       2.33140033       3.32500920       7.53143915      -0.00027229      -0.00415956       0.00353721
Ti       0.00940511       1.68120476       7.92657523       0.00437699      -0.00114047       0.00721218
Ti       2.35328778       6.10008118       8.44051171      -0.00093646      -0.00269301       0.00565256
Ti       4.63570804       4.42383422       8.88150321       0.00339482      -0.00104627       0.00916416
Ti       2.34234813       1.10936616       9.52492730      -0.00021540      -0.00598132       0.00442823
Ti       0.02320286       7.19457770       9.68548413       0.00353938      -0.00569296       0.00272791
Ti       2.23498059       3.81363018      10.45650310       0.00103757      -0.00329651       0.01145048
Ti       0.12421322       2.16887276      10.93839684       0.00200028      -0.00870755       0.00148131
Ti       2.30537327       6.61554184      11.17899427      -0.00599084      -0.01266852      -0.00118419
Ti       4.14028083       4.80242041      11.83186579       0.01686539      -0.00349231       0.00046699
Ti       2.70058559       1.61607315      12.53456419       0.00060064      -0.01539046       0.00088021
Ti       0.36010134       7.61717600      12.48372954      -0.00025640      -0.00249619      -0.00461703
Ti       1.25823766       4.81382867      13.28379082      -0.01382445      -0.00197672      -0.00137831
Ti       3.11719423       6.63737243      13.88807117      -0.00013694       0.00657452       0.00677572
Ti       0.63586476       2.13709917      14.15316449      -0.00653707      -0.00198853       0.00062955
Ti       3.22064563       3.79369081      14.62280080       0.00347428       0.00131559       0.00554472
Ti       0.70322296       7.25951665      15.37858853      -0.00806313       0.01230789       0.00499923
Zn       3.01111446       1.14177746      15.52860506      -0.00996165       0.01476066       0.00395428
Ti       0.78511985       4.51459161      16.17276020      -0.00134905       0.01098474       0.00555764
Ti       3.07110708       6.15715305      16.60591083      -0.00062729       0.01256358       0.00451727
Ti       0.70134607       1.69506850      17.08384958      -0.00538243       0.01647989      -0.00437538
Ti       3.10796950       3.35917444      17.47574901       0.00142881       0.00639320      -0.00509680
Ti       0.73601063       6.62117754      18.14652837      -0.00071466       0.00291792      -0.00025709
Ti       3.09686598       0.55267423      18.44123177       0.00119897       0.00730576      -0.00440897
Ti       0.74819176       3.84765774      19.08451565       0.00266581       0.00094460      -0.00865604
Ti       3.06719807       5.55434502      19.41654842       0.00192308       0.00395442      -0.00463515
Ti       0.75098267       1.10614539      20.04233508       0.00195830      -0.00135428      -0.00264365
Ti       3.07462298       2.75745910      20.43272842      -0.00020291      -0.00485971      -0.00635500
Ti       0.72164468       6.08774155      20.95790122      -0.00037792      -0.00412437      -0.00549596
Ti       3.10345633       7.77001111      21.38018919      -0.00235928      -0.00297446      -0.00709597
Ti       0.72826964       3.33024085      22.02419916      -0.00142388      -0.00433484      -0.00672000
Ti       3.05136135       4.99787987      22.21234919      -0.00262451      -0.00116700      -0.00732871
Ti       0.84816716       0.62169336      22.94997075      -0.00147841      -0.00542671      -0.00919261
Ti       2.95254603       2.26888198      23.42396825      -0.00136041      -0.00349102      -0.00154087
Ti       0.77995278       5.59210073      23.67251384       0.00045415       0.00068575      -0.00365827
Ti       3.59247279       7.38887513      24.32594707      -0.01069366       0.00063347       0.00038962
Ti       0.37603834       2.79618794      25.03895926       0.00071257      -0.00249086      -0.00219733
Ti       2.70602555       4.56636242      25.04158519       0.00058509      -0.00363610      -0.00154322
