52
Lattice="4.6568 0.0 0.0 0.0 7.770572 0.0 0.0 0.0 25.044546" Properties=species:S:1:pos:R:3:forces:R:3 job_name=CSL7-Zr-Zr-38-d-6.58 GB_type=CSL7 element=Zr system=Zr-38-d-6.58 distance=6.58 energy=-401.37639086 stress_kbar_3x3="_JSON [[-6.90795377, -0.22354614, 0.24162333], [-0.22354614, -12.39431753, -0.36568309], [0.24162335, -0.36568307, -11.73706204]]" pbc="T T T"
Ti       1.81944268       7.38540854       0.72273957       0.00548309      -0.00035509      -0.00085780
Ti       4.62696378       5.60494481       1.38209284       0.00068089       0.00170598       0.00005143
Ti       2.45382259       2.27031265       1.63908079      -0.00045030       0.00127477       0.00090565
Ti       4.56487476       0.62593215       2.07880626       0.00117148       0.00017215       0.00002747
Ti       2.35661303       5.00365944       2.82863154       0.00054907      -0.00153360       0.00157164
Ti       0.02532538       3.33739005       3.02378820      -0.00037231       0.00012755       0.00117508
Ti       2.30890227       0.00809729       3.65061963      -0.00006172      -0.00012406       0.00093920
Ti       0.03035687       6.10609700       4.09306907       0.00003755      -0.00132275       0.00065948
Ti       2.34108360       2.76346394       4.60501849       0.00002681       0.00146388      -0.00053317
Ti       0.00354388       1.11929425       4.99271010       0.00026530       0.00069515       0.00099683
Ti       2.34533699       5.56596358       5.61368772       0.00017228      -0.00052060       0.00054980
Ti       0.00597212       3.87471024       5.94838079       0.00044191      -0.00001719      -0.00070190
Ti       2.33505621       0.56472327       6.57484710       0.00056646       0.00046059       0.00107388
Ti       0.01574540       6.64434373       6.90642877       0.00024571       0.00008419      -0.00052389
Ti       2.33149226       3.32217788       7.52729497       0.00028522      -0.00017152      -0.00138842
Ti       0.01240828       1.67817003       7.92093248       0.00008583      -0.00119237       0.00044170
Ti       2.35946800       6.10560766       8.42883035       0.00002245       0.00101413      -0.00066172
Ti       4.63723923       4.43168785       8.86704780      -0.00024538      -0.00002363      -0.00121630
Ti       2.35518782       1.10169169       9.50334444      -0.00028110       0.00046130      -0.00085653
Ti       0.02503442       7.20817670       9.69055365       0.00015751       0.00117236      -0.00095457
Ti       2.23798607       3.81103622      10.42827307       0.00167689      -0.00098853       0.00093788
Ti       0.13166146       2.17074271      10.90262019      -0.00056231      -0.00117992      -0.00215360
Ti       2.29238383       6.60384978      11.13849952       0.00006695      -0.00245585      -0.00047170
Ti       4.14166271       4.82538372      11.78990442       0.00217920      -0.00416489       0.00297141
Ti       2.70662354       1.62050799      12.49973230      -0.00010585      -0.00072921       0.00029437
Ti       0.38116558       7.64137686      12.50880647      -0.00061528      -0.00162027      -0.00100734
Ti       1.26271600       4.80729330      13.18572233      -0.00131513      -0.00023855      -0.00066241
Ti       3.10846518       6.58232052      13.87868064      -0.00084426       0.00003365       0.00049850
Ti       0.62209527       2.16096006      14.10104841      -0.00041511       0.00033710       0.00080182
Ti       3.17249489       3.80290972      14.54086482      -0.00035968      -0.00043470      -0.00371773
Ti       0.72068853       7.19016360      15.31975431      -0.00007132       0.00257256       0.00132894
Ti       3.04194557       1.07621201      15.48856276      -0.00001197      -0.00108587       0.00117290
Ti       0.78582559       4.45189258      16.06869157       0.00022569       0.00027697       0.00419332
Ti       3.05879268       6.11052068      16.62924277      -0.00042641       0.00207531      -0.00135133
Ti       0.73167532       1.66588819      17.04431112       0.00013828       0.00242296       0.00191829
Ti       3.07746536       3.30780420      17.38942609       0.00031318       0.00215494       0.00888143
Ti       0.73701470       6.72788983      18.12192980      -0.00043667      -0.00388767       0.00141252
Ti       3.07117087       0.64302983      18.46553509      -0.00042421       0.00017041      -0.00130774
Zr       0.74141239       3.88418943      19.09722214      -0.00229129      -0.00046124      -0.00852557
Ti       3.06496842       5.70073233      19.45306470      -0.00021871      -0.00664836      -0.00269427
Ti       0.74929066       1.07008910      20.10210547      -0.00055920       0.00527868      -0.00138188
Ti       3.06250903       2.71113674      20.54462210      -0.00104549       0.00411104      -0.00525098
Ti       0.72420134       6.14739975      21.00939231      -0.00042299      -0.00078691      -0.00330988
Ti       3.10422323       0.00199303      21.45197243      -0.00009501      -0.00008217       0.00121982
Ti       0.71708897       3.30228507      22.12894026      -0.00005218      -0.00112493      -0.00109262
Ti       3.04414916       4.98397355      22.20399738       0.00025225       0.00095944       0.00324074
Ti       0.84712385       0.62788659      23.00603440      -0.00029894      -0.00077084       0.00067410
Ti       2.95103550       2.25478548      23.50270371      -0.00006177      -0.00129663      -0.00045036
Ti       0.78496891       5.59377332      23.69275987      -0.00114303       0.00251547       0.00046048
Ti       3.59341694       7.36621016      24.35287631      -0.00192293       0.00470747       0.00258866
Ti       0.38218827       2.80430094       0.03847491      -0.00037628      -0.00291438      -0.00146433
Ti       2.71861153       4.56025257       0.00485407       0.00044283      -0.00011630       0.00154867
