52
Lattice="4.6568 0.0 0.0 0.0 7.770572 0.0 0.0 0.0 25.044546" Properties=species:S:1:pos:R:3:forces:R:3 job_name=CSL7-Al-Al-38-d-6.58 GB_type=CSL7 element=Al system=Al-38-d-6.58 distance=6.58 energy=-397.44120969 stress_kbar_3x3="_JSON [[-15.1099988, 0.20169893, -0.54632083], [0.20169888, -26.2460824, 0.01958384], [-0.54632076, 0.01958381, -17.84065326]]" pbc="T T T"
Ti       1.80686355       7.41082257       0.69384538      -0.01177593       0.00108747       0.01003798
Ti       4.62865535       5.60488104       1.36591642       0.00111978       0.00329731       0.00530366
Ti       2.46213529       2.28025603       1.60309251       0.00505364      -0.00016187       0.00577611
Ti       4.56585049       0.62822136       2.08577930      -0.00078650      -0.00016658      -0.00475292
Ti       2.35936070       5.01163408       2.82901928      -0.00082671       0.00360533      -0.00487727
Ti       0.03217148       3.33889022       3.00989609      -0.00099566       0.00214178       0.00050526
Ti       2.30692683       0.01209574       3.64922599       0.00039495       0.00209450      -0.00373071
Ti       0.03171370       6.10425845       4.08911130       0.00094666       0.00310383      -0.00282561
Ti       2.34306093       2.76263330       4.59582353       0.00024223       0.00058907       0.00182865
Ti       0.00353320       1.11874867       4.99445659       0.00147142       0.00033738      -0.00001587
Ti       2.34786511       5.56693479       5.61723605       0.00125379       0.00246716       0.00186094
Ti       0.01008421       3.87248917       5.94706135       0.00097869       0.00233781      -0.00211363
Ti       2.33737523       0.56754202       6.57868297       0.00146442       0.00192104      -0.00125034
Ti       0.01835937       6.64380810       6.91018806       0.00192630       0.00222742       0.00062493
Ti       2.33308378       3.32188054       7.53387696       0.00220694       0.00288328       0.00013475
Ti       0.01458155       1.67674035       7.92584837       0.00006956       0.00416727      -0.00139704
Ti       2.35741486       6.10906637       8.43806095       0.00089995       0.00287779      -0.00267933
Ti       4.63684208       4.43143837       8.87666711       0.00117970      -0.00165134      -0.00088906
Ti       2.35516569       1.11026441       9.51589271       0.00041958       0.00035881       0.00021035
Ti       0.03271638       7.20336695       9.69802163       0.00109149      -0.00327064      -0.00005135
Ti       2.23704800       3.82710085      10.45442598      -0.00267908      -0.00461190      -0.00275810
Ti       0.13081804       2.17417301      10.90783717       0.00661559       0.00234575       0.00262144
Ti       2.30701665       6.62013597      11.16135821      -0.00449853       0.00348223      -0.00483520
Ti       4.15118879       4.81981655      11.82470171      -0.00838645      -0.00321742      -0.00775253
Ti       2.70538591       1.66575857      12.52644508       0.00560475      -0.00406680      -0.00387219
Ti       0.38091344       7.66332834      12.51902902       0.00136820      -0.00698097      -0.00595119
Ti       1.26124036       4.82990513      13.25273440       0.01657663      -0.00230713       0.01013154
Ti       3.11372514       6.64291478      13.87946241       0.00048157      -0.00517105      -0.00202999
Ti       0.63123191       2.17016653      14.14506661      -0.01118489       0.00561650       0.00718706
Ti       3.18525886       3.82930335      14.62273775      -0.00421891      -0.00334884      -0.00932859
Ti       0.72600638       7.21011083      15.34504992       0.00233418      -0.00608538       0.00165286
Ti       3.07177225       1.12871364      15.54902592       0.00205231      -0.00177055      -0.00155494
Ti       0.76859702       4.40476256      16.20522342       0.00373598       0.00415184       0.00107704
Ti       3.04791893       6.11213417      16.55637083      -0.00287699      -0.00782266       0.01369818
Ti       0.73873201       1.64042161      17.15894377      -0.00215631      -0.00442468       0.00411740
Ti       3.05606915       3.30369005      17.56973807      -0.00234024       0.00638166      -0.00280120
Ti       0.74189183       6.54261794      18.12045196       0.00052960       0.00180098       0.00636553
Ti       3.06633829       0.45406233      18.45090720      -0.00050565       0.00997922      -0.00109702
Al       0.73513828       3.83437735      19.09564258       0.00034712       0.00305772      -0.00103242
Ti       3.06226766       5.47203710      19.43338644      -0.00391249      -0.00197883      -0.00047254
Ti       0.75573935       1.11213783      20.01210270      -0.00216104      -0.01128330      -0.00336059
Ti       3.06794062       2.79740496      20.42461078      -0.00306998       0.00311307       0.00384237
Ti       0.72674625       6.07638869      20.93479488      -0.00189820       0.00547308      -0.00823208
Ti       3.09204492       0.01312007      21.35808002      -0.00264097      -0.00519096       0.00673978
Ti       0.73543511       3.38267426      21.99910526      -0.00195894      -0.00247481       0.00004738
Ti       3.06315409       5.06040609      22.27781538       0.00184525      -0.00075834      -0.00742774
Ti       0.82988629       0.63849851      22.92063267       0.00121072      -0.00216681       0.00217099
Ti       2.94126921       2.30119226      23.40175808      -0.00219794      -0.00509353       0.00512418
Ti       0.77202367       5.61755805      23.68713708      -0.00069482       0.00036480      -0.00027560
Ti       3.58837256       7.43060210      24.33381208       0.00725697       0.00070452      -0.00780619
Ti       0.36535032       2.80122219      -0.01470965      -0.00411992       0.00000139      -0.00058994
Ti       2.68060986       4.57793444       0.01715003       0.00520820       0.00203432       0.00470280
