52
Lattice="4.6568 0.0 0.0 0.0 7.770572 0.0 0.0 0.0 25.044546" Properties=species:S:1:pos:R:3:forces:R:3 job_name=CSL7-Zn-Zn-25-d-0.00 GB_type=CSL7 element=Zn system=Zn-25-d-0.00 distance=0.0 energy=-394.17411557 stress_kbar_3x3="_JSON [[-13.42398019, 0.00499883, -0.88355661], [0.00499882, -29.17693547, 0.0028378], [-0.88355661, 0.0028378, -20.38314346]]" pbc="T T T"
Ti       1.81979019       7.41724957       0.70503006       0.00302397       0.00618447      -0.00006455
Ti       4.63770994       5.62319216       1.36890970       0.00333439       0.00819585       0.00281301
Ti       2.46396501       2.29594772       1.61563516       0.00082257       0.00383781      -0.00217637
Ti       4.57368820       0.64733420       2.08114191       0.00912679      -0.00461857      -0.00509191
Ti       2.36752854       5.02883956       2.82904663       0.00296260       0.00086878       0.00290626
Ti       0.03465659       3.35761551       3.02133586       0.00502080      -0.00042637       0.00195101
Ti       2.31791642       0.02959077       3.64690864       0.00174695       0.00107542       0.00089386
Ti       0.04413717       6.12571223       4.10346220       0.00241529      -0.00065922       0.00112421
Ti       2.35261644       2.78343235       4.60517855       0.00326290      -0.00112627       0.00205916
Ti       0.02084548       1.13245286       4.99865947       0.00235985       0.00207571      -0.00159285
Ti       2.36621741       5.58281798       5.62236354       0.00357525      -0.00349801      -0.00555466
Ti       0.02630644       3.88887059       5.96056405       0.00322277      -0.00457566       0.00095159
Ti       2.35587513       0.57469953       6.56929121       0.00306317       0.00440727       0.00004420
Ti       0.04701003       6.64706668       6.93715829       0.00333754       0.00573307       0.00458194
Ti       2.35230754       3.33667799       7.53062609       0.00285583      -0.00455097       0.00112940
Ti       0.03943092       1.68860603       7.93167038       0.00411523       0.00033779      -0.00508310
Ti       2.38091595       6.09502174       8.45592137       0.00138287      -0.00480085      -0.00225798
Ti       4.62739976       4.43085874       8.91935348       0.00312832      -0.00459190       0.00110646
Ti       2.38713591       1.08902717       9.47807046       0.00410745       0.00034661      -0.00010559
Ti       0.06133265       7.20086286       9.73063193       0.00617246      -0.00017287       0.00233693
Ti       2.18728325       3.79084432      10.48742073       0.00490373       0.00387241       0.00417885
Ti       0.10953959       2.07543580      10.91751628       0.00119838       0.00329557       0.00250701
Ti       2.39447081       6.60769980      11.13853929      -0.00213999      -0.00590496       0.00902096
Ti       4.13810634       4.74121715      11.83961824       0.01226799      -0.00098884       0.00986110
Ti       2.70412834       1.56107731      12.52174740       0.00039100      -0.00604364      -0.00007093
Zn       0.37600313       7.54864684      12.52177375       0.00016641       0.00488195      -0.00037538
Ti       1.27074307       4.74132610      13.20360017      -0.01320723      -0.00103470      -0.00933374
Ti       3.01464396       6.60805502      13.90517497       0.00053293      -0.00551263      -0.00880139
Ti       0.64199269       2.07558861      14.12611293      -0.00109748       0.00324341      -0.00289354
Ti       3.22169454       3.79129437      14.55618223      -0.00443098       0.00433852      -0.00431408
Ti       0.69092931       7.20152465      15.31308246      -0.00620068      -0.00053354      -0.00302378
Ti       3.02179866       1.08940537      15.56580812      -0.00291411       0.00025940      -0.00016714
Ti       0.78173501       4.43168887      16.12434175      -0.00302287      -0.00554630      -0.00128331
Ti       3.02819303       6.09573438      16.58795876      -0.00115476      -0.00493830       0.00108902
Ti       0.71227871       1.68954070      17.11216967      -0.00342731      -0.00070720       0.00437324
Ti       3.05617815       3.33733749      17.51301992      -0.00230934      -0.00522327      -0.00165178
Ti       0.70502211       6.64820328      18.10668023      -0.00293359       0.00495230      -0.00533238
Ti       3.05260846       0.57562836      18.47442703      -0.00228880       0.00448244       0.00068612
Ti       0.72534042       3.88984892      19.08300705      -0.00259643      -0.00522319      -0.00115467
Ti       3.04260029       5.58381783      19.42129113      -0.00301680      -0.00375231       0.00596535
Ti       0.73070814       1.13332902      20.04528837      -0.00230629       0.00247577       0.00237004
Ti       3.05571396       2.78430700      20.43846655      -0.00328019      -0.00092513      -0.00183782
Ti       0.70790705       6.12664828      20.94026414      -0.00237079       0.00030161      -0.00025385
Ti       3.09104883       0.03029893      21.39665575      -0.00174407       0.00136216      -0.00002780
Ti       0.71720055       3.35821438      22.02197444      -0.00567798      -0.00047909      -0.00095227
Ti       3.04135545       5.02956726      22.21428742      -0.00391044       0.00022021      -0.00173056
Ti       0.83609352       0.64750926      22.96239170      -0.00887934      -0.00391497       0.00490169
Ti       2.94549436       2.29656225      23.42728638      -0.00189814       0.00282937       0.00220427
Ti       0.77153641       5.62323793      23.67437899      -0.00328888       0.00785371      -0.00251498
Ti       3.59061499       7.41783520      24.33841157      -0.00261346       0.00561547      -0.00095495
Ti       0.37624806       2.82583885      25.04396997      -0.00049924       0.00897882      -0.00046539
Ti       2.70489403       4.59750283      25.04381600      -0.00128828      -0.01227714       0.00001106
