52
Lattice="4.6568 0.0 0.0 0.0 7.770572 0.0 0.0 0.0 25.044546" Properties=species:S:1:pos:R:3:forces:R:3 job_name=CSL7-Zn-Zn-28-d-1.62 GB_type=CSL7 element=Zn system=Zn-28-d-1.62 distance=1.62 energy=-394.08679269 stress_kbar_3x3="_JSON [[-16.34363068, -0.37467389, -0.69720861], [-0.37467387, -25.94732791, -0.40582201], [-0.69720864, -0.40582202, -20.54911285]]" pbc="T T T"
Ti       1.81165770       7.41515804       0.70236966      -0.00323621       0.00527466       0.00136954
Ti       4.63947855       5.61623666       1.36631164       0.00074176       0.00313900      -0.00059266
Ti       2.46271443       2.29162029       1.60865616      -0.00015469       0.00391294       0.00049750
Ti       4.57144565       0.64099561       2.08878863       0.00074815       0.00496468      -0.00053648
Ti       2.36885406       5.02800471       2.83102283       0.00186470       0.00253501      -0.00082596
Ti       0.03474288       3.35214705       3.01164814       0.00118534       0.00259202      -0.00115047
Ti       2.31930521       0.02815757       3.65305955       0.00142217       0.00325534      -0.00078922
Ti       0.04028935       6.12655305       4.09822241       0.00232136       0.00311976      -0.00007315
Ti       2.35210468       2.77911918       4.59277789       0.00213670       0.00160904      -0.00029598
Ti       0.01786523       1.13545640       5.00500489       0.00232457       0.00232531      -0.00080376
Ti       2.35968719       5.58848835       5.62497132       0.00267363       0.00142244      -0.00154984
Ti       0.01860649       3.89100686       5.94143241       0.00265395       0.00162994       0.00098203
Ti       2.35751325       0.57800499       6.58886191       0.00197506       0.00015149      -0.00052950
Ti       0.02918123       6.65847144       6.93004119       0.00274320       0.00099333      -0.00092628
Ti       2.34089295       3.34276822       7.52121053       0.00201789      -0.00105823      -0.00115648
Ti       0.03284910       1.69393978       7.94657926       0.00272893       0.00119958       0.00221873
Ti       2.37515200       6.11986345       8.46202297       0.00049012      -0.00085207      -0.00123329
Ti       4.65032225       4.43820142       8.87437598       0.00260618      -0.00060657       0.00002611
Ti       2.37990146       1.11920762       9.53735779      -0.00071979      -0.00222804       0.00084596
Ti       0.02566971       7.22911134       9.73164310       0.00202558      -0.00166583      -0.00125572
Ti       2.25953654       3.79759253      10.41782500       0.00038928      -0.00192876       0.00242764
Ti       0.20329505       2.16484582      10.97451301       0.00028121      -0.00545400      -0.00029250
Ti       2.28614784       6.62904695      11.17760028       0.00055611      -0.00373211      -0.00227450
Ti       4.14277284       4.83071776      11.77073432       0.00816710      -0.00102803       0.00400267
Ti       2.78146653       1.60160493      12.53937272      -0.00005895      -0.00432959      -0.00128264
Ti       0.39144291       7.61331287      12.59219874       0.00219172       0.00113695       0.00037359
Ti       1.24612936       4.69269016      13.16555773      -0.00555420      -0.00343643      -0.00042252
Ti       3.10001410       6.44980671      13.89744816       0.00030990       0.00074465      -0.00184907
Zn       0.67102968       2.14506324      14.20203875      -0.00187519      -0.00390773      -0.00237607
Ti       3.12141131       3.70114143      14.63476315      -0.00222984      -0.00117736       0.00059990
Ti       0.68834237       7.13610764      15.30172608      -0.00142330       0.00223648      -0.00171607
Ti       3.02281104       1.03966628      15.44723075      -0.00134731      -0.00027514       0.00346751
Ti       0.74225662       4.40440721      16.15916931      -0.00233697      -0.00293189      -0.00039286
Ti       3.02343494       6.09141820      16.59505202      -0.00103079      -0.00195151       0.00022548
Ti       0.69545350       1.68428347      17.09473311      -0.00152782      -0.00146137      -0.00157889
Ti       3.04333859       3.32289132      17.51970094      -0.00135382      -0.00437431      -0.00135053
Ti       0.72272743       6.65919462      18.10541486      -0.00199560      -0.00135862       0.00044241
Ti       3.05903082       0.57105429      18.45073337      -0.00180390      -0.00022849      -0.00040044
Ti       0.72137323       3.88962522      19.09216853      -0.00211338      -0.00242705       0.00021089
Ti       3.04959120       5.59234265      19.42578228      -0.00165528      -0.00132753       0.00101266
Ti       0.73306293       1.13550896      20.02680725      -0.00195060      -0.00166763       0.00010619
Ti       3.05728482       2.77668567      20.45844105      -0.00218301      -0.00252921       0.00089359
Ti       0.70734811       6.12746573      20.94155935      -0.00187622       0.00009775      -0.00097703
Ti       3.08850325       0.02874041      21.37914818      -0.00150573      -0.00088063       0.00074743
Ti       0.71515463       3.35910729      22.02164486      -0.00209090      -0.00038538       0.00112016
Ti       3.04121260       5.02920299      22.21144549      -0.00168774      -0.00189950       0.00082809
Ti       0.83399703       0.64629743      22.94223503      -0.00194980       0.00208925       0.00055099
Ti       2.94547508       2.29724063      23.42438748      -0.00124475       0.00063721       0.00200012
Ti       0.76926727       5.61864002      23.67358152      -0.00055674       0.00201223       0.00007116
Ti       3.59480760       7.41600693      24.33204298       0.00230532       0.00254812      -0.00015568
Ti       0.37331994       2.81317917      25.04215666      -0.00037127       0.00279810       0.00090514
Ti       2.70161845       4.59324207      25.04405111      -0.00102609       0.00267774       0.00086212
