52
Lattice="4.6568 0.0 0.0 0.0 7.770572 0.0 0.0 0.0 25.044546" Properties=species:S:1:pos:R:3:forces:R:3 job_name=CSL7-Zn-Zn-38-d-6.58 GB_type=CSL7 element=Zn system=Zn-38-d-6.58 distance=6.58 energy=-394.10634004 stress_kbar_3x3="_JSON [[-15.5339936, 0.17359375, -0.3689207], [0.17359374, -28.0854722, -0.11914222], [-0.36892071, -0.11914223, -19.68212423]]" pbc="T T T"
Ti       1.80751330       7.40747482       0.68609465       0.01287762       0.00761654      -0.00138752
Ti       4.63067426       5.60432063       1.36050041      -0.00465419       0.00094111       0.00503235
Ti       2.46403284       2.27870256       1.59859448      -0.00180168       0.00815692      -0.00165265
Ti       4.56584928       0.62684179       2.08074063       0.00191242       0.00378763      -0.00288984
Ti       2.35864161       5.01118351       2.82129900       0.00300815      -0.00024613       0.00090935
Ti       0.02944981       3.33876115       3.00686659       0.00153170       0.00499740      -0.00038917
Ti       2.30615553       0.01265734       3.64433127       0.00100440       0.00417446       0.00099043
Ti       0.03069077       6.10457183       4.08510963       0.00154071       0.00054082       0.00174461
Ti       2.34192514       2.76366892       4.59316429       0.00242416       0.00096687      -0.00351670
Ti       0.00316337       1.11847994       4.99277472       0.00163621       0.00383840       0.00022225
Ti       2.34753144       5.56803227       5.61486673       0.00162628       0.00212057      -0.00309813
Ti       0.00887373       3.87333793       5.94589431       0.00150915      -0.00129190      -0.00331231
Ti       2.33673035       0.56706399       6.57744211       0.00168668       0.00433027      -0.00462784
Ti       0.01842602       6.64311114       6.91024421       0.00260072       0.00476844      -0.00156633
Ti       2.33266908       3.32277971       7.53256298       0.00080523       0.00244168      -0.00294144
Ti       0.01315555       1.67663896       7.92654846       0.00249606       0.00226994      -0.00227775
Ti       2.35642652       6.10950595       8.43743278       0.00249022      -0.00005607       0.00070743
Ti       4.63663360       4.43085806       8.87748989       0.00164948      -0.00020184      -0.00032730
Ti       2.35206621       1.10976868       9.51700194       0.00306619       0.00185801      -0.00097804
Ti       0.03154289       7.20288636       9.70140660       0.00007492      -0.00019816       0.00326566
Ti       2.23777687       3.82449990      10.45289876       0.00284875       0.00203883       0.00094999
Ti       0.13055579       2.17229578      10.91207274       0.00167393      -0.00002149       0.00511997
Ti       2.30558815       6.61918566      11.16411599       0.00179891       0.00037345       0.00492993
Ti       4.14635435       4.82085932      11.82929965       0.00681988       0.00302088       0.00751413
Ti       2.70595525       1.66430424      12.53107342       0.00048676      -0.00279263       0.00382975
Ti       0.38413016       7.65972795      12.52522156      -0.00002834      -0.00186848      -0.00020431
Ti       1.26769010       4.82842786      13.25701221      -0.00469166      -0.00160183      -0.00554076
Ti       3.11242915       6.64290847      13.88596847       0.00147773      -0.00256952      -0.00934925
Ti       0.62797275       2.16710811      14.15426096       0.00357748      -0.00315034      -0.00352579
Ti       3.18662007       3.83009986      14.63046872      -0.00071299      -0.00084503      -0.00195485
Ti       0.72344230       7.21029371      15.35979120      -0.00056731      -0.00210110      -0.00376336
Ti       3.06465895       1.13352364      15.55708906      -0.00078731      -0.00179111      -0.00223491
Ti       0.77740746       4.41707654      16.20036378      -0.00042586      -0.01082309       0.00370142
Ti       3.04946822       6.10686798      16.57399670      -0.00195421      -0.00765877       0.00201170
Ti       0.73606256       1.63570177      17.17262350      -0.00221976      -0.00740312       0.00664209
Ti       3.05218785       3.30200629      17.55543218      -0.00130894      -0.00455177       0.00547536
Ti       0.73994264       6.54847172      18.12446868      -0.00185441      -0.00516809       0.00414268
Ti       3.06691953       0.47033658      18.46046037      -0.00156770      -0.00038452       0.01135270
Zn       0.73502505       3.83733608      19.09490243      -0.00193617      -0.00373692       0.00216447
Ti       3.06401832       5.48514345      19.44026450      -0.00371771      -0.00517496      -0.00010015
Ti       0.75313094       1.11261888      20.00476461      -0.00236504       0.00058091       0.00159605
Ti       3.06632032       2.78757106      20.42670583      -0.00337144      -0.00871204       0.00171641
Ti       0.72415246       6.07148380      20.93311022      -0.00144016      -0.00277524      -0.00778583
Ti       3.09177543       0.01120088      21.35571930      -0.00085422       0.00144565      -0.00669445
Ti       0.73419880       3.38373968      22.00040640      -0.00339230      -0.00320454      -0.00804917
Ti       3.06233340       5.05736415      22.26659425      -0.00578990      -0.00436829      -0.00779574
Ti       0.82912899       0.63991056      22.91215849      -0.00807010       0.00330561      -0.00347292
Ti       2.94495026       2.29718862      23.39717459       0.00022173       0.00723279       0.00196684
Ti       0.77392233       5.61294516      23.67857067      -0.00089760       0.00409665      -0.00026175
Ti       3.59361788       7.43119245      24.32947373      -0.01585271       0.00798011       0.00607965
Ti       0.37137427       2.80087310      25.02450797       0.00045012       0.00479870       0.00183044
Ti       2.68962902       4.57773385       0.01173972       0.00696611      -0.00498571       0.00580259
