52
Lattice="4.6568 0.0 0.0 0.0 7.770572 0.0 0.0 0.0 25.044546" Properties=species:S:1:pos:R:3:forces:R:3 job_name=CSL7-Zr-Zr-24-d-0.00 GB_type=CSL7 element=Zr system=Zr-24-d-0.00 distance=0.0 energy=-401.559869 stress_kbar_3x3="_JSON [[-8.05742646, 0.00790017, 0.02206461], [0.00790016, -15.21241328, -0.00264449], [0.02206461, -0.00264449, -7.07923671]]" pbc="T T T"
Ti       1.81793421       7.38878296       0.70257707      -0.00026060       0.00624341       0.00254748
Ti       4.62558928       5.60823028       1.35990717      -0.00192720       0.00580312       0.00200733
Ti       2.45556833       2.26918821       1.59925767       0.00181247      -0.00459542      -0.00110756
Ti       4.56683302       0.63149260       2.05108661      -0.00203369       0.00521207      -0.00046507
Ti       2.35955414       5.00696950       2.80869657      -0.00071701       0.00129342      -0.00037936
Ti       0.02679524       3.34246119       2.98482884       0.00178611      -0.00441100      -0.00166432
Ti       2.30940297       0.00934375       3.61503313       0.00001995       0.00370390      -0.00216600
Ti       0.03042403       6.11346733       4.06557052       0.00049342       0.00156934      -0.00148211
Ti       2.34188116       2.76581671       4.56734550       0.00182780      -0.00241838      -0.00270419
Ti       0.00438419       1.12497980       4.95139620       0.00106737      -0.00234201      -0.00357397
Ti       2.34310001       5.57013366       5.58786388       0.00297720      -0.00098068      -0.00393793
Ti       0.00548028       3.87958749       5.90606584       0.00248282      -0.00235677      -0.00302205
Ti       2.33750185       0.56888734       6.52237970       0.00102953      -0.00033396      -0.00296214
Ti       0.01694483       6.65904746       6.87601178       0.00217127       0.00027235      -0.00202382
Ti       2.33103684       3.31973975       7.47928089       0.00139099      -0.00412698      -0.00036552
Ti       0.01511459       1.67259627       7.86256644       0.00007227      -0.00236044       0.00030441
Ti       2.35593027       6.10770615       8.39266775       0.00057804       0.00002916       0.00134806
Ti       4.64720428       4.44345626       8.80511178       0.00058131      -0.00447799       0.00299631
Ti       2.35697033       1.08647910       9.42287099       0.00056221       0.00264966       0.00325455
Ti       0.02625363       7.19469113       9.67041424       0.00190390       0.00303452       0.00328370
Ti       2.24817858       3.84958512      10.33619113       0.00014873      -0.00891255       0.00018643
Ti       0.15531414       2.17075772      10.77131559      -0.00132823      -0.00200732       0.00057078
Ti       2.29656508       6.57291110      11.13681451       0.00029518       0.00839464       0.00264050
Ti       4.16285504       4.79577448      11.77769859      -0.00133060      -0.00443652       0.00275885
Zr       2.70451786       1.67527480      12.52053986      -0.00066448       0.00566272       0.00175224
Ti       0.37607655       7.57385703      12.52160233       0.00051574       0.00244862      -0.00093527
Ti       1.24666807       4.79595310      13.26557433      -0.00036748      -0.00392000      -0.00410197
Ti       3.11267764       6.57317947      13.90634821      -0.00009716       0.00853636      -0.00393666
Ti       0.59610208       2.17065344      14.27127934       0.00230339      -0.00267266      -0.00160621
Ti       3.16058681       3.84955026      14.70703849       0.00016902      -0.00843889      -0.00006536
Ti       0.72582389       7.19494124      15.37339964      -0.00258354       0.00300110      -0.00318357
Ti       3.05176615       1.08680629      15.62006759      -0.00097194       0.00291905      -0.00331774
Ti       0.76159230       4.44366248      16.23851168      -0.00037272      -0.00491398      -0.00283249
Ti       3.05276677       6.10795369      16.65115219      -0.00040545      -0.00021736      -0.00053900
Ti       0.73728804       1.67297090      17.18080974      -0.00027889      -0.00239999       0.00072335
Ti       3.07762728       3.32017841      17.56444127      -0.00105565      -0.00442631       0.00096417
Ti       0.73519377       6.65921395      18.16799059      -0.00245031       0.00035688       0.00339264
Ti       3.07124504       0.56919482      18.52104451      -0.00122100      -0.00001414       0.00423200
Ti       0.74623889       3.87993790      19.13796097      -0.00232881      -0.00299520       0.00424216
Ti       3.06542469       5.57054100      19.45621475      -0.00288075      -0.00125467       0.00512653
Ti       0.74737371       1.12507213      20.09243536      -0.00092626      -0.00224594       0.00388866
Ti       3.06648067       2.76606641      20.47656110      -0.00167434      -0.00281556       0.00306207
Ti       0.72138432       6.11352968      20.97877328      -0.00052011       0.00167206       0.00169584
Ti       3.09945649       0.00927422      21.42867624      -0.00000021       0.00347348       0.00244535
Ti       0.72503214       3.34243853      22.05918049      -0.00157165      -0.00447798       0.00124546
Ti       3.04907370       5.00712840      22.23518169       0.00098517       0.00102448      -0.00000385
Ti       0.84273067       0.63147908      22.99266678       0.00168025       0.00520024       0.00007337
Ti       2.95406958       2.26887004      23.44420751      -0.00184905      -0.00492461       0.00061572
Ti       0.78366373       5.60820874      23.68383783       0.00189120       0.00609854      -0.00351805
Ti       3.59184234       7.38889665      24.34109412       0.00139387       0.00616509      -0.00413198
Ti       0.37646017       2.81097949      25.04403184      -0.00018540       0.00213503      -0.00051400
Ti       2.70491125       4.56274512      -0.00049780      -0.00013670       0.00257806      -0.00081776
