52
Lattice="4.6568 0.0 0.0 0.0 7.770572 0.0 0.0 0.0 25.044546" Properties=species:S:1:pos:R:3:forces:R:3 job_name=CSL7-Zr-Zr-37-d-5.94 GB_type=CSL7 element=Zr system=Zr-37-d-5.94 distance=5.94 energy=-401.37725764 stress_kbar_3x3="_JSON [[-7.126601, 0.21336982, -0.27879482], [0.21336982, -12.45523438, -0.41604868], [-0.27879481, -0.41604869, -11.87510631]]" pbc="T T T"
Ti       1.81528998       7.39175635       0.73374627       0.00143637      -0.00344187      -0.00314265
Ti       4.62221358       5.61476459       1.38634398       0.00407601       0.00647416       0.00020803
Ti       2.45976893       2.27607392       1.62534166      -0.00067426       0.00059604       0.00013303
Ti       4.56771604       0.63729218       2.09382810       0.00503287      -0.00531661      -0.00126118
Ti       2.35575467       5.00664970       2.83448607       0.00022285       0.00104186      -0.00214834
Ti       0.02888366       3.34646634       3.02103579       0.00147753       0.00403521       0.00177475
Ti       2.31045231       0.00876981       3.65668510       0.00079374       0.00105061       0.00061915
Ti       0.03328657       6.10890290       4.09465309       0.00496395       0.00415018      -0.00359399
Ti       2.34432210       2.76195139       4.60262047       0.00197289       0.00428878      -0.00243988
Ti       0.00599562       1.12109203       4.99438377       0.00247363       0.00083012       0.00069750
Ti       2.34877250       5.56426252       5.61553390       0.00141108       0.00370547      -0.00658917
Ti       0.01113916       3.87664271       5.94741872       0.00271653      -0.00064981      -0.00408390
Ti       2.33836492       0.56337974       6.57282206       0.00251338       0.00590132      -0.00512984
Ti       0.02155666       6.64564155       6.90560917       0.00062740       0.00504125       0.00057653
Ti       2.33555684       3.31878166       7.52771745       0.00292887      -0.00264189      -0.00284296
Ti       0.01578264       1.67668608       7.91444833       0.00235080      -0.00257792      -0.00088076
Ti       2.36251624       6.10275853       8.42514554       0.00276030       0.00219494       0.00666348
Ti       4.64067116       4.43233131       8.86697787       0.00061579       0.00208601       0.00022864
Ti       2.35531622       1.10037715       9.49527190       0.00525328      -0.00480991      -0.00271362
Ti       0.03165995       7.20556918       9.68744340      -0.00042767       0.00076232       0.00557381
Ti       2.23827893       3.81374313      10.43767905       0.00829554       0.00389901       0.00724608
Ti       0.12717885       2.16922341      10.87762841      -0.00159758      -0.00347820       0.00018702
Ti       2.30087800       6.60384408      11.13484646       0.00803117      -0.00538138       0.00840991
Ti       4.15180118       4.82392863      11.79371179      -0.00046134       0.00749726       0.01004380
Ti       2.71105691       1.63863494      12.47936039       0.00161284      -0.00633528       0.00234567
Ti       0.39164955       7.64936722      12.51069295      -0.00276855      -0.00598559       0.00244640
Ti       1.26463404       4.84167709      13.21032169       0.00471063       0.00401308      -0.00418804
Ti       3.11251688       6.61641385      13.86599227      -0.00363776      -0.00807822      -0.00681893
Ti       0.62206647       2.18321230      14.06334091      -0.00051358       0.00074070      -0.00599327
Ti       3.17479979       3.81375778      14.56034740      -0.00510035       0.00804305      -0.01053218
Ti       0.71449749       7.22353580      15.35673243      -0.00228442      -0.00249022      -0.00334285
Ti       3.04393474       1.13655296      15.43197496      -0.00305836       0.00159345       0.00084803
Ti       0.77290714       4.43637242      16.11489189      -0.00052408      -0.00824265      -0.00243464
Ti       3.05083387       6.06255779      16.55192168      -0.00476463      -0.01105292      -0.00186037
Ti       0.72922875       1.72707520      17.01866049      -0.00177274       0.00031143      -0.00261460
Ti       3.07299779       3.37127464      17.46314528      -0.00119508      -0.00360840      -0.00556493
Ti       0.73274047       6.50538783      18.11070169      -0.00252702       0.00100921       0.00428704
Zr       3.06344772       0.55652907      18.46908529      -0.00029128      -0.00046842       0.00450303
Ti       0.73860263       3.79327310      19.10242740      -0.00358082      -0.00560654      -0.00254080
Ti       3.06094721       5.48197517      19.44574722      -0.00096309       0.00088789      -0.00193202
Ti       0.74464734       1.12895715      20.18114158      -0.00404697      -0.00124641      -0.00221002
Ti       3.05663857       2.77272000      20.52493265      -0.00319996      -0.00087501       0.00732252
Ti       0.72763770       6.09902278      20.93892458      -0.00486810      -0.00374169       0.00904347
Ti       3.10939346       7.75630489      21.50285375       0.00173838      -0.00402765      -0.00482767
Ti       0.71162618       3.36343843      22.07763076      -0.00638338       0.00635745       0.00535820
Ti       3.04630740       5.01828387      22.24751411      -0.00050986      -0.00595409       0.00357133
Ti       0.84218054       0.63816340      23.03077910      -0.00700010      -0.00314756       0.00526193
Ti       2.94743551       2.28125809      23.46948496       0.00442972       0.00666078       0.00486178
Ti       0.77925442       5.62875447      23.68967226      -0.00056126       0.00446293      -0.00096645
Ti       3.58936706       7.40387060      24.38344600      -0.00361514      -0.00360324       0.00608353
Ti       0.37781077       2.82754500       0.02460560      -0.00216403       0.00320119      -0.00014944
Ti       2.70857381       4.57440994       0.01682270      -0.00395417       0.01192575      -0.00749215
