52
Lattice="4.6568 0.0 0.0 0.0 7.770572 0.0 0.0 0.0 25.044546" Properties=species:S:1:pos:R:3:forces:R:3 job_name=CSL7-Zr-Zr-32-d-3.65 GB_type=CSL7 element=Zr system=Zr-32-d-3.65 distance=3.65 energy=-401.43736791 stress_kbar_3x3="_JSON [[-6.53342202, 0.19120173, 0.39113425], [0.19120171, -12.42077181, 0.34957151], [0.39113424, 0.34957153, -10.72259595]]" pbc="T T T"
Ti       1.81701946       7.39236382       0.72271535      -0.00185156      -0.00187910       0.00099964
Ti       4.62851800       5.60376770       1.37647293       0.00262157       0.01080702       0.00469706
Ti       2.45779579       2.27180871       1.62135399       0.00393600      -0.00016990       0.00680395
Ti       4.56514350       0.63100744       2.08258868       0.00407762      -0.00621651       0.00159365
Ti       2.35810893       5.00760451       2.82829413       0.00021326       0.00014128       0.00639316
Ti       0.02690646       3.34205991       3.01201681      -0.00028174      -0.00258221       0.01141611
Ti       2.31002517       0.00811832       3.64749012       0.00108637       0.00092323       0.00404161
Ti       0.03252182       6.11010478       4.08686952       0.00473799      -0.00068976       0.00595188
Ti       2.34341119       2.76175316       4.59344471       0.00310789      -0.00151764       0.00064990
Ti       0.00575806       1.12149622       4.98563177       0.00100357      -0.00092350       0.00494140
Ti       2.34882926       5.56357469       5.60761605       0.00096964      -0.00218069       0.00245194
Ti       0.01025279       3.87632184       5.93520372       0.00103907      -0.00575796      -0.00111215
Ti       2.33968831       0.56098646       6.56584619       0.00030925      -0.00215845      -0.00383940
Ti       0.01889134       6.64543798       6.89680640       0.00013044      -0.00421389      -0.00103385
Ti       2.33494846       3.31551986       7.51638170       0.00078282      -0.00137463      -0.01024728
Ti       0.01706369       1.67569966       7.91050563       0.00033981      -0.00027449      -0.00219540
Ti       2.35836438       6.09437630       8.42208609       0.00294640      -0.00395854      -0.00348048
Ti       4.63479993       4.42661135       8.84786082      -0.00119442       0.00036975      -0.00184519
Ti       2.35389155       1.08715957       9.49170510       0.00101929       0.00085279      -0.00360243
Ti       0.02833520       7.19971300       9.67471574       0.00225293       0.00497155       0.00450153
Ti       2.22827465       3.79413727      10.41921335       0.00218625      -0.00678259       0.00118722
Ti       0.12288289       2.15978542      10.89209251      -0.00011427      -0.00919470       0.00126763
Ti       2.29858618       6.59213262      11.13407030      -0.00777060      -0.00624568       0.00415014
Ti       4.16097780       4.83094014      11.74903760       0.01363601      -0.00305030       0.00437402
Ti       2.68972579       1.57815324      12.47870712      -0.00725951       0.00897326       0.00074657
Ti       0.36989119       7.62474628      12.49700575       0.00250850      -0.00932597      -0.01006222
Ti       1.26174297       4.80498670      13.13338025      -0.00774674       0.00586090       0.00183399
Ti       3.12746054       6.58665788      13.91268401      -0.00216410      -0.00131825      -0.00509356
Ti       0.61144009       2.14158846      14.04882049      -0.00732225       0.01175842      -0.00118130
Ti       3.16275596       3.77833804      14.40526952       0.00215115      -0.00615569      -0.00221399
Ti       0.73853684       7.29717452      15.33780814      -0.00249371      -0.00164554      -0.00227288
Ti       3.05234668       1.18497219      15.54020133       0.00877633       0.00065728       0.00087091
Zr       0.76739041       4.43391187      16.12873504      -0.00207545       0.00116323      -0.01518009
Ti       3.06524639       6.23664235      16.62230781       0.00356512      -0.01029215      -0.00604059
Ti       0.73525016       1.63732733      17.19462788      -0.00364652       0.00694096      -0.00525126
Ti       3.06789597       3.28834725      17.59876484      -0.00021201       0.00416306      -0.00920527
Ti       0.74135581       6.68453838      18.18720313      -0.00094091      -0.00271909       0.00606700
Ti       3.07303050       0.57661322      18.52045271      -0.00363827      -0.00569520       0.00578947
Ti       0.73771820       3.85528749      19.17694560      -0.00151852       0.00253521       0.00406867
Ti       3.06364032       5.55846099      19.43198964      -0.00149886       0.01028961       0.00629089
Ti       0.74764123       1.12361360      20.10018706       0.00019168      -0.00568624       0.00725114
Ti       3.06404579       2.76025338      20.49940663      -0.00053816       0.00554764       0.01369647
Ti       0.72138440       6.10423959      20.97774414      -0.00061485      -0.00564807       0.00822206
Ti       3.09896703       0.00214907      21.42433267       0.00045325      -0.00229420      -0.00388243
Ti       0.72227910       3.33582942      22.08002370       0.00359861       0.00875390      -0.00964694
Ti       3.05247246       5.00396936      22.23555326      -0.00674635       0.01024811      -0.00559242
Ti       0.84024753       0.62631691      22.99364629      -0.00216161      -0.00393115      -0.00057156
Ti       2.95100870       2.26708709      23.45809946      -0.00260856      -0.00167058      -0.00283388
Ti       0.78207781       5.60668472      23.69725604      -0.00718322       0.01492150      -0.00624407
Ti       3.59057774       7.38979702      24.35610517       0.00739878      -0.00051825      -0.00596831
Ti       0.37673173       2.80453812       0.02080501      -0.00196485       0.00181494       0.00181750
Ti       2.70703476       4.56593742       0.01044840      -0.00149254       0.00437729      -0.00347857
