52
Lattice="4.6568 0.0 0.0 0.0 7.770572 0.0 0.0 0.0 25.044546" Properties=species:S:1:pos:R:3:forces:R:3 job_name=CSL7-Zn-Zn-34-d-4.60 GB_type=CSL7 element=Zn system=Zn-34-d-4.60 distance=4.6 energy=-394.20407712 stress_kbar_3x3="_JSON [[-15.37377308, -0.39972874, 0.638435], [-0.39972873, -27.47770351, -0.4006287], [0.63843501, -0.40062871, -21.60371585]]" pbc="T T T"
Ti       1.81685863       7.40453089       0.68896795      -0.00340982       0.01423775       0.00023268
Ti       4.63130851       5.60521909       1.36186283       0.00393577       0.01043934      -0.00407805
Ti       2.45721868       2.28239718       1.61814800      -0.00282660       0.00262536      -0.00377672
Ti       4.56662257       0.62412756       2.07148567       0.00370084       0.00304674      -0.00192503
Ti       2.35692742       5.01134892       2.82447888       0.00289698       0.00449116      -0.00163021
Ti       0.02584415       3.33752889       3.01197316       0.00263318       0.00122055      -0.00065685
Ti       2.30931227       0.01268796       3.64573581       0.00097490       0.00828604      -0.00329476
Ti       0.02713453       6.10523019       4.09035711       0.00181652       0.01003887      -0.00116066
Ti       2.34138962       2.76682707       4.59989590       0.00192612      -0.00039132       0.00023606
Ti       0.00330632       1.11965461       4.99429181       0.00100987       0.00175817       0.00285534
Ti       2.34753505       5.57025700       5.61999835       0.00149455       0.00681753       0.00631256
Ti       0.00720840       3.87362488       5.94582452       0.00111122       0.00278217       0.00896944
Ti       2.33559527       0.56612376       6.58175634       0.00109889       0.00364317       0.00100676
Ti       0.01573048       6.64461093       6.92009873       0.00026202       0.00106724       0.00310584
Ti       2.33086170       3.32840043       7.53068696      -0.00094634       0.00428548       0.00388297
Ti       0.00812153       1.67965400       7.92924986       0.00069827       0.00763345       0.00519071
Ti       2.35611698       6.10860034       8.45452226      -0.00035285       0.00244352       0.00111874
Ti       4.63236531       4.42477966       8.87569567      -0.00155004       0.00201080      -0.00049556
Ti       2.34023782       1.11944416       9.51329489       0.00147726       0.00800176       0.00064696
Ti       0.02140989       7.21555939       9.71674753      -0.00371643       0.00486033      -0.00845532
Ti       2.22459976       3.82325160      10.46389479      -0.00495328      -0.00273792      -0.00370627
Ti       0.12079883       2.17348502      10.93947848      -0.00167882       0.00615992       0.00505069
Ti       2.29718311       6.63813178      11.17407626      -0.00366309       0.00246840      -0.00579687
Ti       4.16151954       4.85756507      11.77937332      -0.00370111      -0.00544800      -0.00852927
Ti       2.69888214       1.64342977      12.55448273       0.00038200       0.00343234      -0.00375244
Ti       0.38673578       7.66198767      12.56651803       0.00105163      -0.00089140       0.00752564
Ti       1.23787574       4.82740736      13.25560795       0.00432982      -0.01372670       0.01323136
Ti       3.09246250       6.64622412      13.89647849       0.00236469      -0.00408816       0.00512715
Ti       0.61886106       2.17233776      14.19063446       0.00525838      -0.00325351       0.01001537
Ti       3.20503388       3.84153405      14.50343635       0.00283794      -0.01044507       0.00536492
Ti       0.72499059       7.18415279      15.40286698      -0.00153791      -0.00190007      -0.00326223
Ti       3.06983104       1.09955597      15.59386245      -0.00096743      -0.00862234       0.00046995
Ti       0.74993078       4.34086775      16.15060420       0.00352141      -0.01346920      -0.00081830
Ti       3.05934009       6.00114899      16.59346698      -0.00030842      -0.00947747      -0.00454348
Zn       0.74843499       1.66134749      17.14559616      -0.00087628      -0.01072575      -0.00207525
Ti       3.08274219       3.24230926      17.52829251      -0.00003640      -0.00566185      -0.00567683
Ti       0.74010567       6.61877505      18.09202106      -0.00291255       0.00114754       0.00274537
Ti       3.09300471       0.54201408      18.42180474      -0.00219065      -0.01173250      -0.00121454
Ti       0.74304665       3.83832268      19.09161453      -0.00280916      -0.01133895      -0.01098991
Ti       3.06629891       5.54098786      19.40371742      -0.00317991      -0.00227714       0.00122320
Ti       0.75053270       1.15336939      20.01346915      -0.00093952      -0.01008042      -0.00612778
Ti       3.06452965       2.77854236      20.47241940      -0.00042308      -0.00737366       0.00128239
Ti       0.72612693       6.11972823      20.91939064      -0.00059105       0.00439748      -0.00294522
Ti       3.09766728       0.01942298      21.35593106      -0.00094134      -0.00326942       0.00189692
Ti       0.73229515       3.35343711      22.03568246       0.00032450      -0.00317220       0.00224044
Ti       3.05178665       5.03764604      22.20908486      -0.00231396      -0.00843138      -0.00306772
Ti       0.84342024       0.63567494      22.92668177       0.00194345       0.00682551       0.00071703
Ti       2.94034880       2.28282158      23.44986173      -0.00124176      -0.00183852      -0.00106164
Ti       0.78391017       5.61667120      23.66095708      -0.00118383       0.00906317       0.00049868
Ti       3.59237960       7.39910018      24.31678461       0.00129177       0.01440227       0.00155828
Ti       0.37774416       2.80316554      25.03778194       0.00006352      -0.00254100      -0.00512370
Ti       2.70736650       4.57562005      25.03667753       0.00084614       0.00530790       0.00165916
