52
Lattice="4.6568 0.0 0.0 0.0 7.770572 0.0 0.0 0.0 25.044546" Properties=species:S:1:pos:R:3:forces:R:3 job_name=CSL7-Cu-Cu-33-d-4.09 GB_type=CSL7 element=Cu system=Cu-33-d-4.09 distance=4.09 energy=-396.4775045 stress_kbar_3x3="_JSON [[-19.23876278, 0.26452153, 0.5613585], [0.26452155, -29.23503686, -0.91363029], [0.56135847, -0.91363025, -27.40877496]]" pbc="T T T"
Ti       1.81907925       7.39397272       0.68706339      -0.01281336      -0.00620148       0.00443551
Ti       4.63295268       5.59667843       1.34858349      -0.00162507      -0.00726060      -0.00766325
Ti       2.45964330       2.28037440       1.60380007       0.00173572      -0.00094095       0.00150719
Ti       4.56752627       0.62072221       2.06454851      -0.00798908       0.00211306       0.01316489
Ti       2.35854423       5.01272597       2.81021945       0.00420787       0.00028013      -0.00097065
Ti       0.02447840       3.33452954       3.00698604       0.00159198      -0.00034138       0.00104344
Ti       2.31128310       0.01599916       3.64080219       0.00376915       0.00374670       0.00067735
Ti       0.02968198       6.10576473       4.08661891       0.00511969       0.00311078      -0.00118647
Ti       2.34002630       2.76936865       4.59373782       0.00195415       0.00029807       0.00382582
Ti       0.00528918       1.11783389       4.99722985       0.00173047      -0.00024381       0.00120271
Ti       2.34791148       5.57414226       5.61562457       0.00287141       0.00048344       0.00426141
Ti       0.01045136       3.87521312       5.94887439       0.00144412      -0.00033080       0.00553033
Ti       2.33719271       0.56828931       6.58190593       0.00334905      -0.00139065       0.00353982
Ti       0.01756204       6.64070410       6.92877533       0.00223279      -0.00336737       0.00422962
Ti       2.33443898       3.32702427       7.53068760       0.00123101      -0.00148288       0.00398896
Ti       0.01355424       1.67531471       7.94656222       0.00249345      -0.00168472       0.00210207
Ti       2.35882106       6.10567587       8.45947548       0.00207742      -0.00452672       0.00647487
Ti       4.64044023       4.41981635       8.89314776       0.00120372      -0.00248606       0.00313766
Ti       2.34541046       1.11160537       9.52193577       0.00004698      -0.00676081       0.00209711
Ti       0.02780578       7.20408530       9.74098728      -0.00281132      -0.00389549       0.00167223
Ti       2.21878764       3.80283477      10.45266997      -0.00400298      -0.00562103      -0.00145330
Ti       0.13828226       2.14224937      10.97988295      -0.00098479      -0.00366385      -0.00362084
Ti       2.31497507       6.63382244      11.19291137      -0.00400943      -0.00680689       0.00352890
Ti       4.11405223       4.81819949      11.84779847      -0.00571000       0.00027233       0.00040008
Ti       2.70103693       1.61393459      12.55870854      -0.00018745      -0.00146727       0.00274586
Ti       0.39468410       7.59791725      12.61913240      -0.00271437      -0.01182835       0.00114453
Ti       1.26016581       4.78998261      13.23057186       0.00586151       0.00063511       0.00939764
Ti       3.03089614       6.56732595      13.94315559       0.00324475      -0.00260845       0.00311944
Ti       0.62770154       2.16388273      14.19099651      -0.00148780      -0.00115582      -0.00081094
Ti       3.13244432       3.79022178      14.60647177       0.00507285      -0.00221465       0.00695104
Ti       0.73198556       7.27731780      15.46035497      -0.00076723       0.01272263       0.00024404
Ti       3.04969328       1.12035445      15.58039588      -0.00247462       0.00024611      -0.00262952
Ti       0.79866221       4.53205834      16.19755932      -0.00035994       0.00304965      -0.00978610
Cu       3.10813582       6.08698578      16.58490392      -0.00310647       0.00706476      -0.00261893
Ti       0.74025938       1.78499313      17.10082774      -0.00221335       0.00033323      -0.01115642
Ti       3.08133559       3.40158286      17.51726465      -0.00430327       0.00845616      -0.00281372
Ti       0.76579512       6.61979542      18.06319015      -0.00422171      -0.00089508       0.00214122
Ti       3.06402058       0.58890091      18.37241477      -0.00791573       0.00428676      -0.00796999
Ti       0.74812070       3.86398938      19.14369684      -0.00401166       0.00810289      -0.00066439
Ti       3.06463371       5.53707326      19.35842063      -0.00516918       0.00358585       0.00287219
Ti       0.74414431       1.09599545      20.02962912       0.00043498       0.00266176      -0.00363219
Ti       3.06123512       2.73978090      20.41200759       0.00063735       0.00569318      -0.00256417
Ti       0.72983397       6.11499316      20.90049853      -0.00340686       0.00037307       0.00712685
Ti       3.10150829       7.76920329      21.34404656       0.00041483       0.00626058      -0.00626421
Ti       0.71687407       3.31244578      22.03704146       0.00388043       0.00053027      -0.00836611
Ti       3.04214083       4.99420258      22.14692132       0.00124445       0.00488274       0.00376130
Ti       0.84483914       0.60991960      22.92478266       0.00705547      -0.00005392      -0.01560351
Ti       2.94639026       2.25720993      23.40985569       0.00107161       0.00593579      -0.00704836
Ti       0.77657414       5.59537506      23.64064561       0.00371206      -0.01086196       0.00332892
Ti       3.58664455       7.37616191      24.29608579       0.01395865      -0.00280610      -0.00783214
Ti       0.38213776       2.79055944      25.02370845      -0.00168793      -0.00903063      -0.00262327
Ti       2.72080752       4.56210487      25.00350516       0.00032566       0.01480272      -0.00237452
