52
Lattice="4.6568 0.0 0.0 0.0 7.770572 0.0 0.0 0.0 25.044546" Properties=species:S:1:pos:R:3:forces:R:3 job_name=CSL7-Al-Al-33-d-4.09 GB_type=CSL7 element=Al system=Al-33-d-4.09 distance=4.09 energy=-397.64641267 stress_kbar_3x3="_JSON [[-15.47235291, 0.95460489, 0.62502548], [0.95460486, -24.1065579, -1.44531685], [0.62502548, -1.44531685, -20.63202522]]" pbc="T T T"
Ti       1.81930135       7.39220945       0.69762974      -0.00533812       0.00175165      -0.00183892
Ti       4.62975804       5.59838472       1.35568074       0.00671236       0.00483969      -0.00276779
Ti       2.45912525       2.27680880       1.61081854      -0.00435306       0.00338966      -0.00412218
Ti       4.56561262       0.62209264       2.07210889       0.00430034      -0.00718381      -0.00635201
Ti       2.35692175       5.00856350       2.81364819       0.00030944       0.00199667       0.00160132
Ti       0.02418175       3.33566642       3.00857504       0.00089884       0.00080539      -0.00039199
Ti       2.30879158       0.01097015       3.64372973      -0.00124715       0.00167715       0.00016840
Ti       0.02872197       6.10478692       4.08332585       0.00071038       0.00270727      -0.00006596
Ti       2.33923684       2.76615933       4.59227550       0.00184299       0.00021427       0.00239187
Ti       0.00222457       1.11877760       4.99196980       0.00186462       0.00100730       0.00215362
Ti       2.34424369       5.56973849       5.60927064       0.00248529       0.00191139       0.00016908
Ti       0.00792935       3.87445188       5.94299401       0.00187578      -0.00025259       0.00178340
Ti       2.33296816       0.56907652       6.57529440       0.00122758       0.00063004      -0.00097171
Ti       0.01538811       6.64344328       6.91169978       0.00214116       0.00018795      -0.00078380
Ti       2.33263948       3.32547236       7.52004114      -0.00060906      -0.00203145       0.00012766
Ti       0.01142118       1.67932119       7.93251825       0.00117321      -0.00395712      -0.00180397
Ti       2.36070424       6.11041071       8.43583900      -0.00075724       0.00329080       0.00452458
Ti       4.64347280       4.42805017       8.87452132      -0.00250868       0.00123413      -0.00427977
Ti       2.34734764       1.11533596       9.50663604       0.00356766      -0.00494051       0.00070561
Ti       0.02695687       7.20978320       9.71002145      -0.00365719       0.00202168      -0.00438946
Ti       2.22565963       3.80905953      10.43216849      -0.00171488      -0.00048731      -0.00372916
Ti       0.13862699       2.15696870      10.94581589      -0.00546627      -0.00594528      -0.00010145
Ti       2.30613279       6.62373247      11.15018018       0.00220750       0.00277700      -0.00583878
Ti       4.11274754       4.81913450      11.82664963       0.01457783       0.00273566       0.01320601
Ti       2.70916888       1.63510729      12.54143327      -0.00241208       0.00126307       0.00232497
Ti       0.39549563       7.61827630      12.56262802      -0.00356184       0.00991071      -0.00455055
Ti       1.25014789       4.79692350      13.21087455      -0.00443364       0.00337734       0.00101563
Ti       3.02729057       6.61660632      13.86124875      -0.00201774      -0.00615173       0.00590820
Ti       0.62413793       2.17067070      14.18023206       0.00810496      -0.00586106      -0.00495554
Ti       3.13081748       3.81887644      14.62658238      -0.00089312       0.00655377       0.00017676
Ti       0.75153267       7.25938025      15.41829326       0.00217184       0.00016059       0.00909761
Ti       3.05253186       1.10192661      15.57628771      -0.00380977      -0.00792444       0.00356574
Ti       0.79646116       4.49584771      16.21123568       0.00147345       0.00095872      -0.00039952
Al       3.09640604       6.07737189      16.57159142      -0.01070725       0.00395611       0.00410365
Ti       0.73884974       1.74914015      17.12729077      -0.00403052      -0.00381753      -0.00445663
Ti       3.07469230       3.35954139      17.54416413       0.00067720      -0.00188193      -0.00109169
Ti       0.76319076       6.64047645      18.08468795      -0.00062085      -0.00009934      -0.00736444
Ti       3.07167744       0.56058223      18.41270020      -0.00098164      -0.00323857      -0.00257438
Ti       0.74971862       3.85600393      19.17328757      -0.00351310      -0.00316926       0.00163561
Ti       3.07103167       5.54988153      19.36708108      -0.00293532      -0.00218973      -0.00013690
Ti       0.74688630       1.09948127      20.04188576       0.00029504       0.00341005      -0.00251206
Ti       3.06798999       2.73596483      20.45768700       0.00098961       0.00492387      -0.00190085
Ti       0.72930483       6.10307205      20.92236342      -0.00082387      -0.00282641       0.00582345
Ti       3.10507659      -0.00963284      21.37634233       0.00185593       0.00135427       0.00262831
Ti       0.72385950       3.31517419      22.06274268      -0.00002746       0.00253596      -0.00510500
Ti       3.04602822       4.99169708      22.17547653       0.00203490       0.00068922       0.00291177
Ti       0.84290150       0.61794627      22.95584354      -0.00181170      -0.00614457       0.00368450
Ti       2.94956815       2.25489218      23.43657222       0.00493777       0.00487128       0.00024821
Ti       0.78256558       5.60767651      23.65333966      -0.00229510       0.00171891       0.00571566
Ti       3.58658941       7.37898998      24.32462294       0.00083280      -0.00213335      -0.00155532
Ti       0.38082847       2.79580820      25.04080630       0.00104460      -0.00280718      -0.00341029
Ti       2.71602759       4.56456172      25.01690892       0.00021360      -0.00581836       0.00177852
