52
Lattice="4.6568 0.0 0.0 0.0 7.770572 0.0 0.0 0.0 25.044546" Properties=species:S:1:pos:R:3:forces:R:3 job_name=CSL7-Zr-Zr-39-d-6.91 GB_type=CSL7 element=Zr system=Zr-39-d-6.91 distance=6.91 energy=-401.21284578 stress_kbar_3x3="_JSON [[-5.2396133, -0.03949, -0.088964], [-0.03949, -12.74614424, -0.13997221], [-0.08896398, -0.13997219, -9.39777034]]" pbc="T T T"
Ti       1.81349924       7.39889958       0.72456966       0.00095118       0.00617620       0.00841467
Ti       4.62713696       5.61095550       1.39335912       0.00184989       0.00143296       0.01271808
Ti       2.45273394       2.26688668       1.63463473      -0.00319483       0.01740852       0.00915999
Ti       4.56649376       0.63344090       2.09242093       0.00087686       0.00256607       0.00244021
Ti       2.35791695       5.01023767       2.84790890       0.00047664      -0.00011443       0.01266250
Ti       0.02709244       3.34237126       3.01924126       0.00049661       0.01228425       0.00614818
Ti       2.30619700       0.00845007       3.65458866       0.00219950      -0.00606923       0.00736038
Ti       0.03064794       6.11006852       4.10212379       0.00321649      -0.00225643       0.00197662
Ti       2.34069816       2.76131837       4.60648873       0.00451784       0.00852998      -0.00217925
Ti       0.00223772       1.12148687       4.99335986       0.00428624       0.00343475       0.00510747
Ti       2.34694505       5.56570869       5.62235170       0.00506111      -0.00003844      -0.00509720
Ti       0.00797950       3.87509041       5.94838698       0.00456831       0.00811513       0.00037345
Ti       2.33656471       0.56499006       6.57523114       0.00445849      -0.00492485       0.00147315
Ti       0.01774115       6.64600506       6.90798063       0.00546850       0.00388547       0.00008441
Ti       2.33255232       3.32001532       7.53110355       0.00411057      -0.00531825      -0.00590842
Ti       0.01261365       1.67851072       7.91784937       0.00452436      -0.00570673       0.00593895
Ti       2.35936236       6.10405282       8.42836496       0.00353412       0.00720158       0.00533302
Ti       4.63773885       4.43115228       8.86853984       0.00183834       0.00260918      -0.00982863
Ti       2.35512556       1.10184716       9.50302896       0.00020026      -0.00994061      -0.00004107
Ti       0.02823997       7.20453345       9.68670082       0.00099458       0.00395768      -0.00781940
Ti       2.23698724       3.81376689      10.43689876      -0.00378600      -0.00408746      -0.00146719
Ti       0.13026136       2.17177643      10.89266973      -0.00081226      -0.01089679      -0.00995825
Ti       2.29545887       6.60820941      11.13629391       0.00312736       0.00284561      -0.01672011
Ti       4.14999560       4.81695463      11.79433775       0.00807774       0.00504784       0.00255244
Ti       2.70613153       1.64335366      12.50086208       0.00162774      -0.00021952      -0.00795507
Ti       0.38110909       7.65237320      12.49076391       0.00643768       0.01045439      -0.00059414
Ti       1.25995513       4.82303144      13.21384550       0.00615650      -0.00875824       0.00555590
Ti       3.11103009       6.61619492      13.84673144      -0.00957501      -0.00143646      -0.00493121
Ti       0.62055112       2.17958379      14.10919874       0.00222876      -0.00350269      -0.00782532
Ti       3.17719177       3.82484956      14.56983325      -0.01110555      -0.00046472      -0.00934918
Ti       0.72293582       7.20696309      15.29368521      -0.00272022       0.00471333       0.00430439
Ti       3.05068056       1.10571341      15.49383137      -0.00665761       0.00286892       0.00654782
Ti       0.76716607       4.43850226      16.16826242      -0.00016978       0.00128160      -0.00579852
Ti       3.04800384       6.13449622      16.53382234      -0.00452334      -0.00245434       0.01454209
Ti       0.73514205       1.67762609      17.07605750      -0.00561813      -0.00094327      -0.00280723
Ti       3.07610622       3.29794314      17.46080792      -0.00495233      -0.00030586       0.00062096
Ti       0.73313600       6.68959706      18.06101830      -0.00301621      -0.01535903       0.00587347
Ti       3.06638145       0.62085760      18.42869474      -0.00426337      -0.01178250      -0.00608041
Ti       0.74146616       3.77243950      19.07474212      -0.00401904       0.01176382       0.00060799
Zr       3.06065415       5.57247843      19.43595403       0.00365774       0.01065840       0.00903953
Ti       0.74240951       1.06765915      20.04989695      -0.00345614      -0.00337035      -0.00000504
Ti       3.07314175       2.70876970      20.47314945      -0.00461944       0.00636880       0.00141974
Ti       0.71708594       6.12025052      21.05411462      -0.00346389      -0.00928871      -0.01581387
Ti       3.10188668       0.03648800      21.47131570       0.00135709      -0.00991714      -0.00143586
Ti       0.73843254       3.32697052      22.01432507      -0.00469159      -0.00093609       0.00106803
Ti       3.06566231       4.98339951      22.30916735      -0.00174252      -0.00093263      -0.01402241
Ti       0.84938390       0.63530974      22.99742301      -0.00433468       0.00148400       0.00321844
Ti       2.95095997       2.28124839      23.47929720       0.00060686      -0.00132495       0.00315911
Ti       0.78784067       5.58016648      23.71198798      -0.01146968       0.00318992      -0.00069930
Ti       3.60429938       7.39323169      24.36946029       0.00607605       0.00555133      -0.01017478
Ti       0.36878112       2.80753018       0.02709957      -0.00058679      -0.00680296       0.00314211
Ti       2.69114585       4.56688663       0.05474850       0.00579504      -0.01667707       0.00566879
