52
Lattice="4.6568 0.0 0.0 0.0 7.770572 0.0 0.0 0.0 25.044546" Properties=species:S:1:pos:R:3:forces:R:3 job_name=CSL7-Cu-Cu-38-d-6.58 GB_type=CSL7 element=Cu system=Cu-38-d-6.58 distance=6.58 energy=-396.21619642 stress_kbar_3x3="_JSON [[-19.31437577, 0.2672916, -0.30579241], [0.26729158, -31.26760521, -0.19975101], [-0.30579242, -0.199751, -23.51788155]]" pbc="T T T"
Ti       1.80872113       7.40535098       0.67979990       0.00597771       0.00390363      -0.01030846
Ti       4.62873275       5.60155426       1.35220190       0.00263413       0.00225029      -0.00288062
Ti       2.46393012       2.27694256       1.59067237      -0.00309239       0.00842424      -0.00538232
Ti       4.56572245       0.62404335       2.07654413      -0.00316819       0.00422632      -0.00401271
Ti       2.35544520       5.00962020       2.81343726       0.00286214       0.00372023      -0.00267692
Ti       0.02550986       3.33704852       3.00210475       0.00075283       0.00493901      -0.00203622
Ti       2.30599904       0.01267692       3.64092770      -0.00085825       0.00435664      -0.00185772
Ti       0.02904528       6.10258954       4.07996229       0.00027918       0.00457981      -0.00055478
Ti       2.33931797       2.76348492       4.58920553       0.00337174       0.00136071      -0.00059657
Ti       0.00174364       1.11685456       4.99030623       0.00118240       0.00406512       0.00262382
Ti       2.34536624       5.56798101       5.61110161       0.00283219       0.00072821       0.00027229
Ti       0.00654384       3.87195902       5.94368162       0.00308611      -0.00213369       0.00225906
Ti       2.33457240       0.56774748       6.57524404       0.00258919       0.00094563       0.00126287
Ti       0.01663319       6.64258210       6.91031887       0.00264214      -0.00150760       0.00107945
Ti       2.33120269       3.32237074       7.53234804       0.00137787       0.00090144      -0.00296171
Ti       0.01031326       1.67453477       7.92678599       0.00389085      -0.00061169       0.00058756
Ti       2.35397727       6.10873401       8.43913021       0.00328533      -0.00137791       0.00019745
Ti       4.63516784       4.42869290       8.88056986       0.00231583       0.00021866      -0.00065523
Ti       2.34908765       1.10786180       9.51892261       0.00092048       0.00888022      -0.00090636
Ti       0.02939248       7.19895174       9.70700310      -0.00116438       0.00374682      -0.00267394
Ti       2.23959436       3.82268452      10.45750856       0.00184700       0.01128388       0.00129922
Ti       0.12799196       2.16873752      10.91444669       0.00194355       0.00444699       0.00753283
Ti       2.30554726       6.61877959      11.17227503       0.00815019      -0.00343229      -0.00039692
Ti       4.14510269       4.81977194      11.84145794      -0.00671720       0.00171083      -0.00723733
Ti       2.70612889       1.66763995      12.54081341       0.00085660      -0.00240125       0.00436534
Ti       0.38269611       7.65982174      12.53537331       0.00123038       0.00470152       0.01440607
Ti       1.26956942       4.83509043      13.27019211       0.00275303      -0.01065648       0.00569036
Ti       3.11166981       6.65115738      13.90017931      -0.00362433      -0.01054470      -0.00185731
Ti       0.62504073       2.17068136      14.16158702       0.00784241      -0.01140137       0.00225825
Ti       3.18547785       3.83506289      14.64757664       0.00068752      -0.00916383       0.00549749
Ti       0.72381753       7.21278275      15.38550608      -0.00307908      -0.00195365      -0.00619285
Ti       3.06465483       1.14551814      15.56860030      -0.00112438      -0.00592317      -0.00822954
Ti       0.77804594       4.42305349      16.21209814       0.00104300      -0.00165020      -0.00045842
Ti       3.05042329       6.10078970      16.58807225      -0.00321548      -0.00268253      -0.00892002
Ti       0.73758260       1.63717246      17.19899258      -0.00084495      -0.00493075      -0.00580246
Ti       3.05305821       3.30990390      17.58439212       0.00168167      -0.01582073       0.00979558
Ti       0.73976569       6.53772404      18.13016891      -0.00560584       0.00037140       0.00219410
Ti       3.06906191       0.46998096      18.47468909      -0.00159147       0.00652260       0.00673305
Cu       0.73547118       3.84082825      19.09871883      -0.00030782       0.00179138       0.00104898
Ti       3.07513597       5.46227096      19.43352140      -0.00587929      -0.00773203      -0.00472786
Ti       0.75291833       1.12694352      19.99035270      -0.00144408      -0.00172672       0.00066696
Ti       3.06539501       2.78095460      20.39488949      -0.00325545      -0.00712672      -0.00224604
Ti       0.72673440       6.07084215      20.92361183      -0.00562316      -0.00576518       0.00112623
Ti       3.09321720       0.01234389      21.34475612       0.00169055       0.00248115       0.00415293
Ti       0.73584623       3.39242026      21.98564065      -0.00530526      -0.00705780       0.00808849
Ti       3.06549219       5.06156945      22.25279829      -0.00792997      -0.01333781      -0.00486704
Ti       0.82836060       0.63894797      22.89608825      -0.00004071       0.00992832       0.00365112
Ti       2.94670927       2.29659414      23.38138837       0.00154324      -0.00011159       0.00368327
Ti       0.77943054       5.61361085      23.66063430      -0.00003826       0.00307410      -0.00394275
Ti       3.59569163       7.43496486      24.31624657      -0.01069424       0.00213140       0.00817123
Ti       0.37277550       2.79730390      25.01303482       0.00232423       0.01685967      -0.00349057
Ti       2.69605951       4.57311369      25.04174318       0.00101068       0.00649948      -0.00277133
