52
Lattice="4.6568 0.0 0.0 0.0 7.770572 0.0 0.0 0.0 25.044546" Properties=species:S:1:pos:R:3:forces:R:3 job_name=CSL7-Cu-Cu-29-d-2.09 GB_type=CSL7 element=Cu system=Cu-29-d-2.09 distance=2.09 energy=-396.33722706 stress_kbar_3x3="_JSON [[-17.50136984, 1.18163424, -0.88946743], [1.18163428, -30.04496383, 1.93679252], [-0.88946743, 1.93679251, -21.29097405]]" pbc="T T T"
Ti       1.81489870       7.38377258       0.70166569       0.00343710       0.00010600      -0.00233112
Ti       4.63781457       5.58015410       1.36388813      -0.00343087      -0.00187568      -0.00115278
Ti       2.46653111       2.26095024       1.60479644      -0.00023752      -0.00142033      -0.00328523
Ti       4.57231902       0.60601707       2.08179014       0.00066601       0.00530168       0.00135868
Ti       2.36671887       4.98675951       2.82301165       0.00380009      -0.00389852      -0.00039584
Ti       0.03101997       3.31512328       3.01840120      -0.00032223      -0.00050104      -0.00093979
Ti       2.32147274       7.75884653       3.64729316      -0.00047685      -0.00032918      -0.00043113
Ti       0.04520659       6.07917925       4.09268146       0.00173392      -0.00187185      -0.00115447
Ti       2.35007697       2.73609824       4.60210185       0.00238321      -0.00204387      -0.00108999
Ti       0.01856870       1.08593397       4.99818150       0.00175379       0.00147354      -0.00086734
Ti       2.36487906       5.53609821       5.61410420       0.00016751      -0.00098888       0.00147281
Ti       0.02545212       3.83996125       5.95885966       0.00144768       0.00048137       0.00246738
Ti       2.35593568       0.53391779       6.57270725       0.00097105       0.00019397      -0.00112373
Ti       0.03358922       6.60701606       6.91677991      -0.00038308      -0.00108769      -0.00023236
Ti       2.35511127       3.28077138       7.54788066       0.00077360      -0.00236850       0.00169376
Ti       0.03355495       1.62924574       7.92923260       0.00063830      -0.00431354      -0.00193228
Ti       2.36968018       6.06955048       8.43780807       0.00167825       0.00028580       0.00381731
Ti       4.65143222       4.39640438       8.90394960       0.00082067      -0.00615479      -0.00145817
Ti       2.38817398       1.04989079       9.51732052       0.00272303       0.00075045       0.00107903
Ti       0.04412090       7.12215069       9.72191990      -0.00058893      -0.00427585       0.00231310
Ti       2.28359602       3.77247602      10.45603642       0.00259235      -0.00069750       0.00538548
Ti       0.11969287       2.12355740      10.87435839      -0.00025066      -0.00143621       0.00275361
Ti       2.34365672       6.57026052      11.21261350       0.00278318      -0.00118233       0.00237255
Ti       4.09695149       4.68661937      11.97005473      -0.00222940      -0.00200048      -0.00446765
Ti       2.70205288       1.65896098      12.47963369      -0.00002967      -0.00184976      -0.00108154
Ti       0.32595440       7.64568197      12.53502733       0.00321998       0.00182906       0.00015637
Ti       1.35699685       4.89904537      13.27130243       0.00254787      -0.00057847       0.00238106
Ti       3.12214956       6.63869545      13.93659632      -0.00170753      -0.00005858      -0.00472616
Ti       0.55497280       2.29182301      14.05729005      -0.00283137      -0.00084333      -0.00037805
Cu       3.19104582       3.86975361      14.70909360      -0.00074443      -0.00620908       0.00499700
Ti       0.71681285       7.31318908      15.33952396      -0.00021902       0.00250291      -0.00296580
Ti       2.99954647       1.25343822      15.52685156      -0.00001742       0.00494591       0.00146189
Ti       0.76463069       4.46631617      16.11659130      -0.00076159       0.00036340      -0.00201617
Ti       3.02643662       6.19317845      16.56750136       0.00160986       0.00101735       0.00144478
Ti       0.71507533       1.71604451      17.14899516      -0.00195918       0.00131185      -0.00195182
Ti       3.04846444       3.35434352      17.49469900       0.00060285       0.00008400      -0.00205236
Ti       0.72654389       6.64479742      18.11716593      -0.00087125       0.00384793       0.00383474
Ti       3.05638589       0.59410035      18.44040251      -0.00322669       0.00123344       0.00152043
Ti       0.72048041       3.89856836      19.07650404      -0.00259166       0.00229455       0.00153421
Ti       3.04781948       5.58888740      19.40096378      -0.00302976       0.00311136      -0.00236963
Ti       0.73210902       1.12295022      20.05099831      -0.00180719       0.00381962      -0.00453482
Ti       3.05153666       2.78214045      20.41097127      -0.00173808       0.00047441       0.00258790
Ti       0.70987629       6.11706060      20.93256960      -0.00174107       0.00033379       0.00275002
Ti       3.08799995       0.02365823      21.37424016       0.00109209       0.00138215      -0.00102560
Ti       0.71433762       3.34742937      22.00722292       0.00014063      -0.00099657      -0.00225812
Ti       3.04003245       5.02337937      22.19662673      -0.00329708       0.00090881      -0.00113011
Ti       0.83824329       0.61819918      22.94611336      -0.00135368       0.00505069       0.00184575
Ti       2.94673207       2.28286500      23.40123824      -0.00023023       0.00153330      -0.00084248
Ti       0.76549337       5.59248359      23.67238874       0.00038011      -0.00054075       0.00034103
Ti       3.58831264       7.39848727      24.32740985      -0.00356486       0.00530724       0.00365986
Ti       0.37280071       2.78890401      25.03860835       0.00064192      -0.00126689      -0.00221406
Ti       2.70759459       4.56607863      25.03365613       0.00103624      -0.00115487      -0.00282013
