52
Lattice="4.6568 0.0 0.0 0.0 7.770572 0.0 0.0 0.0 25.044546" Properties=species:S:1:pos:R:3:forces:R:3 job_name=CSL7-Zn-Zn-39-d-6.91 GB_type=CSL7 element=Zn system=Zn-39-d-6.91 distance=6.91 energy=-394.29256497 stress_kbar_3x3="_JSON [[-16.7004327, -0.10020925, -0.01220249], [-0.10020922, -25.99129284, 0.3510206], [-0.01220244, 0.35102065, -23.36140822]]" pbc="T T T"
Ti       1.81435497       7.38986623       0.69172884      -0.01047621       0.00704748       0.00851713
Ti       4.62979790       5.58745222       1.34657676      -0.00275730      -0.01052389       0.00734737
Ti       2.46514424       2.27941441       1.59777111       0.00329047      -0.00327929      -0.00306340
Ti       4.56254462       0.61720830       2.06686402      -0.00561321       0.01381433       0.01054975
Ti       2.35572402       5.00516475       2.80315093       0.00253206       0.00245876      -0.00321768
Ti       0.02561951       3.32950975       3.00942977       0.00092519      -0.00269333      -0.00876731
Ti       2.31098825       0.01324624       3.64141411       0.00433235       0.00202881      -0.00391316
Ti       0.02873081       6.10285138       4.07435628       0.00172495       0.00298613      -0.00667653
Ti       2.34281065       2.76386628       4.59238119       0.00024799      -0.00059946      -0.00229282
Ti       0.00590633       1.11472700       4.99181287       0.00245987      -0.00414147      -0.00691172
Ti       2.34503654       5.56826539       5.60484711       0.00191413      -0.00374244      -0.00309280
Ti       0.00892768       3.87239675       5.94530143       0.00223449      -0.00132277       0.00529969
Ti       2.33840725       0.56492754       6.57681037       0.00214334      -0.00104565       0.00340491
Ti       0.01726657       6.63942200       6.90851311       0.00207146      -0.00230454       0.00554625
Ti       2.33338500       3.32045464       7.53005780       0.00230143      -0.00200255       0.00610802
Ti       0.01515119       1.67334824       7.92937073       0.00106421       0.00026907       0.00556808
Ti       2.35858920       6.10117577       8.43899388       0.00230091      -0.00741652       0.00439018
Ti       4.63840624       4.42529587       8.88121920       0.00199971      -0.00463624       0.00341733
Ti       2.35521647       1.09697280       9.51555961       0.00237847      -0.00464910       0.00130517
Ti       0.02968582       7.19944787       9.70654518       0.00223363      -0.00573284      -0.00044264
Ti       2.23877996       3.80248934      10.45135335      -0.00030404      -0.00722842      -0.00590035
Ti       0.13613864       2.15033031      10.92932181       0.00197425      -0.00196200      -0.00302006
Ti       2.29923805       6.59779474      11.16694296       0.00233093      -0.00615981      -0.00524103
Ti       4.14379985       4.80797645      11.82519945      -0.00479641      -0.00865077      -0.00561011
Ti       2.70937702       1.60855653      12.54123078       0.00193983      -0.00266743      -0.00192016
Ti       0.38604408       7.62052265      12.55268515      -0.00013177      -0.00768038      -0.00086769
Ti       1.26492837       4.79508354      13.22370226       0.00087258      -0.00560792       0.00138822
Ti       3.10906999       6.57891707      13.93514735      -0.00044590      -0.00469400       0.00485860
Ti       0.61953624       2.13925423      14.15385429      -0.00168116      -0.00359155       0.00410245
Ti       3.16444201       3.78577767      14.59227775       0.00024335      -0.00342231       0.00493411
Ti       0.71795130       7.20654500      15.40656851      -0.00169654      -0.00271391       0.00148202
Ti       3.04607384       1.08753498      15.57294798      -0.00126552      -0.00403084       0.00296763
Ti       0.77504998       4.43123579      16.12366623      -0.00227681       0.00106043      -0.00098895
Ti       3.05302092       6.05915052      16.65725018      -0.00221141      -0.00068554      -0.00323463
Ti       0.73417444       1.69733554      17.15552625      -0.00157036       0.00276324      -0.00476037
Ti       3.06433059       3.33966150      17.51177764      -0.00300702       0.00194970      -0.00483203
Ti       0.72966419       6.65766405      18.17862983      -0.00292076       0.00491622      -0.00467357
Ti       3.07317626       0.57560183      18.51062541      -0.00211428       0.00200460      -0.00681543
Ti       0.73172884       3.95887158      19.09846701      -0.00373588       0.00900734      -0.00334305
Zn       3.06142373       5.56636841      19.41442611      -0.00125700       0.00449809       0.00002228
Ti       0.75187616       1.20382679      20.06401385      -0.00305465      -0.00102146       0.00202429
Ti       3.06369936       2.81515528      20.45872741      -0.00098659       0.00426085      -0.00260775
Ti       0.72971478       6.14024829      20.90156488      -0.00163078       0.00904130       0.00648097
Ti       3.11943195       0.02775813      21.33238043      -0.00512914       0.00644348       0.00620167
Ti       0.70580387       3.35341745      22.09308632       0.00026192       0.00243008       0.00520690
Ti       3.05267870       5.01722788      22.16270385      -0.00237774       0.01030866       0.00386993
Ti       0.84560737       0.60997292      22.92331833       0.00604806       0.01524089      -0.00427320
Ti       2.94382734       2.25656778      23.41400036      -0.00315113       0.00258957      -0.00005716
Ti       0.78169923       5.63226529      23.64340884       0.00208029      -0.00492596      -0.00563198
Ti       3.59193432       7.38547020      24.29889691       0.00980858       0.00966095      -0.00701205
Ti       0.37665892       2.79054471      25.04039008       0.00195462       0.00112145       0.00167991
Ti       2.71831735       4.56650273      24.99082650       0.00092254       0.00323096       0.00249477
