52
Lattice="4.6568 0.0 0.0 0.0 7.770572 0.0 0.0 0.0 25.044546" Properties=species:S:1:pos:R:3:forces:R:3 job_name=CSL7-Zr-Zr-27-d-1.36 GB_type=CSL7 element=Zr system=Zr-27-d-1.36 distance=1.36 energy=-401.13182155 stress_kbar_3x3="_JSON [[-8.42512568, 0.57548866, 0.78670581], [0.57548867, -14.0972365, 0.76411491], [0.7867058, 0.7641149, -8.47042822]]" pbc="T T T"
Ti       1.81693339       7.39956147       0.71704635       0.00106298      -0.00412475      -0.00639836
Ti       4.62508019       5.61266145       1.37076183      -0.00093906       0.00445647      -0.00006055
Ti       2.45843432       2.27236383       1.60673554       0.00031859       0.00504221       0.00029204
Ti       4.56482206       0.63984743       2.06938579       0.00099858      -0.00275090      -0.00145761
Ti       2.35801249       5.00813143       2.81841633      -0.00025970       0.00440433      -0.00104308
Ti       0.02715221       3.34399102       2.99617617      -0.00019894       0.00671015       0.00189491
Ti       2.30922432       0.01173090       3.63386460      -0.00046705      -0.00476805      -0.00332893
Ti       0.03193201       6.11293910       4.07380089      -0.00012244       0.00094783       0.00001472
Ti       2.34400704       2.76389331       4.57617343      -0.00012677       0.00104552      -0.00708295
Ti       0.00378176       1.12677984       4.97017999       0.00059967       0.00015077       0.00168704
Ti       2.34660621       5.56706604       5.59055065      -0.00016528       0.00079993       0.00226588
Ti       0.00675638       3.87674764       5.91915007      -0.00064010       0.00649537      -0.00711887
Ti       2.33620702       0.56900442       6.54805076       0.00070641      -0.00711627       0.00058902
Ti       0.01444911       6.65204397       6.87489313       0.00067430      -0.00445004      -0.00439522
Ti       2.32629889       3.31621121       7.49227737       0.00310469       0.00118146      -0.00649545
Ti       0.01146369       1.68215883       7.89447841      -0.00194837      -0.00408344       0.00098617
Ti       2.35070856       6.10501877       8.39344798      -0.00309049      -0.00102888      -0.00396442
Ti       4.63455222       4.43466597       8.82278721      -0.00252961       0.00192602       0.00096180
Ti       2.34480066       1.09350217       9.47270338      -0.00527851      -0.00514709       0.00031999
Ti       0.01120118       7.20078304       9.65196712       0.00707954      -0.00625927       0.01171560
Ti       2.22618442       3.80581040      10.37809755       0.00129721       0.00121469       0.00503848
Ti       0.14572442       2.16308929      10.88125945       0.00073076      -0.00667708       0.00222096
Ti       2.27150797       6.58192480      11.08347379      -0.00722429       0.00103008       0.00466963
Ti       4.15506376       4.78441351      11.73745410       0.00746855      -0.00710168       0.00984505
Ti       2.69999695       1.63978233      12.45369204      -0.00460879       0.00459735       0.00018328
Ti       0.42081975       7.64562175      12.45124415       0.00717046      -0.00784856      -0.01443315
Ti       1.22158449       4.69752179      13.18469072      -0.00073800      -0.00550506      -0.01211159
Zr       3.10094183       6.60649682      13.90326707      -0.01133278      -0.01443859       0.00676202
Ti       0.62098898       2.06441006      14.15042442       0.00350982      -0.00212123      -0.00532055
Ti       3.14412299       3.72445043      14.57525259       0.00289996      -0.00215995      -0.00658140
Ti       0.73342589       7.23874068      15.46603062       0.00127492      -0.00241712       0.00375260
Ti       3.07354321       1.13962235      15.65977570       0.00332588       0.00217373       0.00064780
Ti       0.78073757       4.43900252      16.13754671       0.00048650       0.00353913      -0.00107743
Ti       3.06634964       6.09860881      16.70758856      -0.00152417       0.00137883       0.00373213
Ti       0.75297771       1.71559265      17.17307245      -0.00161347      -0.00806654      -0.00334709
Ti       3.07586653       3.34220853      17.54757926      -0.00227270      -0.00281017       0.00989635
Ti       0.73985412       6.64335926      18.18758132      -0.00064716       0.00237618      -0.00006566
Ti       3.07886269       0.58226902      18.51231355       0.00078878      -0.00482752       0.00228638
Ti       0.74049984       3.90236064      19.11528753       0.00060287       0.00380725       0.00791789
Ti       3.06305193       5.58618768      19.49291185       0.00061604       0.00122440      -0.00204075
Ti       0.75063190       1.13490129      20.08872611      -0.00061960      -0.00082018      -0.00311429
Ti       3.06717885       2.77588677      20.46955628       0.00063664       0.00572130       0.00333659
Ti       0.72207811       6.12215141      20.99620480       0.00048708       0.00175644       0.00121705
Ti       3.10134228       0.02738417      21.43007827      -0.00037975       0.00118920       0.00340450
Ti       0.72897038       3.35347196      22.05114139       0.00013408       0.00354397      -0.00287047
Ti       3.05632773       5.01549270      22.25427096       0.00035264       0.00755521       0.00275828
Ti       0.84656705       0.64118141      22.99412765       0.00164745      -0.00029917       0.00250120
Ti       2.95391811       2.27990321      23.44688221      -0.00143165       0.00246682      -0.00200522
Ti       0.78503017       5.60973858      23.69770151       0.00023350       0.00595073      -0.00169976
Ti       3.59304755       7.40346973      24.34847364       0.00007415      -0.00025039       0.00625677
Ti       0.37661374       2.81195695       0.00711251      -0.00046178       0.00516079      -0.00153420
Ti       2.70465664       4.56452929       0.01286456       0.00033843       0.01722575       0.00039284
