52
Lattice="4.6568 0.0 0.0 0.0 7.770572 0.0 0.0 0.0 25.044546" Properties=species:S:1:pos:R:3:forces:R:3 job_name=CSL7-V-V-31-d-3.01 GB_type=CSL7 element=V system=V-31-d-3.01 distance=3.01 energy=-401.35400572 stress_kbar_3x3="_JSON [[-18.84484212, -0.08223416, 0.88223972], [-0.08223416, -26.10429202, 1.11363657], [0.88223974, 1.11363657, -22.84974882]]" pbc="T T T"
Ti       1.81836536       7.39558850       0.69825584       0.00069228       0.00051140      -0.00240237
Ti       4.63074945       5.59902688       1.36028820      -0.00041454      -0.00650112      -0.00331856
Ti       2.45795537       2.27624427       1.60936796      -0.00169684       0.00356698       0.00043990
Ti       4.56692904       0.62375877       2.07317751       0.00138715      -0.00209544       0.00119349
Ti       2.35637490       5.01074972       2.82255777       0.00499032      -0.00012489      -0.00237294
Ti       0.02478335       3.33694241       3.01154577      -0.00035223       0.00168326       0.00057969
Ti       2.30989136       0.01264368       3.64757862      -0.00004885      -0.00026498       0.00030108
Ti       0.03042186       6.10377464       4.08865580      -0.00049779      -0.00146167       0.00246529
Ti       2.33997373       2.76540217       4.60306082       0.00081752      -0.00058517       0.00468172
Ti       0.00477559       1.11584197       4.99664997       0.00112570       0.00227709       0.00500808
Ti       2.34664426       5.56860407       5.61889706       0.00276282       0.00084300       0.00474489
Ti       0.00938281       3.87291348       5.95628537       0.00169676      -0.00195717       0.00299659
Ti       2.33503752       0.56676004       6.58548604       0.00341204      -0.00247057       0.00271477
Ti       0.01802690       6.63916312       6.91867079       0.00222556      -0.00125584       0.00070471
Ti       2.33329899       3.32112832       7.54733643       0.00064549      -0.00457633      -0.00162647
Ti       0.01326841       1.67272588       7.93734087       0.00108941      -0.00088139       0.00059981
Ti       2.35681799       6.10290850       8.44938076      -0.00176469      -0.00441867       0.00123568
Ti       4.63530806       4.42419716       8.89793810      -0.00546430      -0.00255688       0.00051163
Ti       2.35504849       1.09923790       9.52897799      -0.00334327      -0.00562982      -0.00268727
Ti       0.03367928       7.19151312       9.71065345      -0.00288480      -0.00281559       0.00077118
Ti       2.22455193       3.80864659      10.47508861       0.00036888       0.00063222       0.01202712
Ti       0.11160304       2.15692866      10.92889583      -0.00330047      -0.00885654      -0.00504684
Ti       2.30256348       6.60559268      11.19227567       0.00060226      -0.00845540       0.00211550
Ti       4.13006897       4.80649488      11.84805680      -0.00936577      -0.00306174      -0.00539245
Ti       2.67496651       1.60674167      12.56420692      -0.00078994      -0.00717952       0.00588413
Ti       0.32198450       7.62587013      12.53183103       0.00629431      -0.00115055       0.00065144
Ti       1.26416929       4.82351074      13.26175236      -0.00084908       0.00576379       0.00416929
Ti       3.12266957       6.62252107      13.95426505       0.00011651       0.00053425      -0.00222189
Ti       0.60530423       2.15043939      14.15102283      -0.00183884      -0.00036782       0.00336954
Ti       3.13635972       3.73562274      14.62833772      -0.00520396      -0.00265028      -0.00063130
Ti       0.75020461       7.28519321      15.37945644       0.00059411      -0.00127200      -0.00330245
V        3.07684056       1.12141767      15.49976045      -0.00891271      -0.00582145      -0.00805248
Ti       0.76975591       4.49848049      16.15325350       0.00293674       0.00862245      -0.00040287
Ti       3.05087762       6.13539091      16.60617565       0.00412777       0.00898449      -0.00231428
Ti       0.76844199       1.70281810      17.04319704      -0.00247247      -0.00396366      -0.00398187
Ti       3.09307956       3.33409643      17.48327754       0.00051816      -0.00294091      -0.00263799
Ti       0.74015143       6.64122939      18.14986232       0.00123428       0.00316533      -0.00332016
Ti       3.08656919       0.57720047      18.40817564      -0.00266706       0.00357588      -0.00070608
Ti       0.75003444       3.87066380      19.07672925       0.00064647       0.00188491      -0.00104881
Ti       3.06700717       5.55980026      19.41301890      -0.00052727       0.00607530      -0.00375129
Ti       0.75521034       1.12443737      20.01817781       0.00048767       0.00647277      -0.00633895
Ti       3.07314576       2.76296276      20.41862455       0.00131745       0.00227062      -0.00086512
Ti       0.72282280       6.09639947      20.94725404       0.00083386       0.00870310       0.00023607
Ti       3.10110127       0.00715228      21.35395554       0.00337150       0.00689531      -0.00011892
Ti       0.73204282       3.33351394      22.01138077       0.00196970       0.00353496       0.00315524
Ti       3.05759740       5.00400243      22.20706267      -0.00270959       0.00562004       0.00086829
Ti       0.84627011       0.61866437      22.93880972       0.00128684       0.00214230      -0.00081199
Ti       2.95083331       2.27083222      23.41569643       0.00335689       0.00198199       0.00046573
Ti       0.78168199       5.59293092      23.67052249       0.00252195      -0.00226756       0.00066304
Ti       3.59347769       7.38969062      24.31549998       0.00014403       0.00114882       0.00044835
Ti       0.37713654       2.79587337      25.03226637       0.00004424      -0.00452330      -0.00068381
Ti       2.70563443       4.56639897      25.03762727       0.00148580       0.00321600       0.00103494
