52
Lattice="4.6568 0.0 0.0 0.0 7.770572 0.0 0.0 0.0 25.044546" Properties=species:S:1:pos:R:3 job_name=CSL7-Zn-Zn-24-d-0.00 GB_type=CSL7 element=Zn system=Zn-24-d-0.00 distance=0.0 energy=-393.88421768 pbc="T T T"
Ti       1.81964474       7.39507919       0.70955287
Ti       4.65354742       5.59087346       1.36455834
Ti       2.47707256       2.26856335       1.61094113
Ti       4.58649437       0.62018965       2.07953608
Ti       2.39682722       5.00230844       2.82423907
Ti       0.06128603       3.32763865       3.01576743
Ti       2.35469340       0.00670964       3.65156110
Ti       0.08049238       6.09777538       4.08801718
Ti       2.39326452       2.75751806       4.60466272
Ti       0.05933017       1.11127615       4.99368656
Ti       2.41020951       5.55717489       5.61276889
Ti       0.06739313       3.86419209       5.94814723
Ti       2.40067661       0.55903646       6.58146561
Ti       0.08765379       6.61912755       6.89656156
Ti       2.39249029       3.32589973       7.53685971
Ti       0.09778627       1.66963118       7.92355194
Ti       2.44245277       6.09823709       8.43940404
Ti       0.01581035       4.39875267       8.88778563
Ti       2.47645454       1.11434446       9.52534059
Ti       0.14742857       7.19682604       9.67998905
Ti       2.23024418       3.86720909      10.43725388
Ti       0.24072685       2.11384431      10.90459978
Ti       2.38440605       6.65547784      11.14859430
Ti       4.15304593       4.84868121      11.81449931
Zn       2.70425065       1.77920836      12.52183236
Ti       0.37548509       7.65652290      12.52174624
Ti       1.25551390       4.84878376      13.22952239
Ti       3.02464819       6.65550955      13.89541739
Ti       0.51079943       2.11386785      14.13909448
Ti       3.17822768       3.86726193      14.60644404
Ti       0.60474726       7.19709080      15.36344825
Ti       2.93244443       1.11458443      15.51875512
Ti       0.73550663       4.39893816      16.15579736
Ti       2.96615542       6.09855969      16.60403295
Ti       0.65428833       1.67001422      17.11994890
Ti       3.01613684       3.32617729      17.50670071
Ti       0.66426761       6.61951729      18.14682448
Ti       3.00821881       0.55927668      18.46216126
Ti       0.68469793       3.86454630      19.09520913
Ti       2.99886226       5.55751914      19.43066288
Ti       0.69317265       1.11135223      20.04980468
Ti       3.01598185       2.75762384      20.43865732
Ti       0.67182512       6.09803766      20.95548301
Ti       3.05441772       0.00682474      21.39192342
Ti       0.69122031       3.32764688      22.02777925
Ti       3.01232593       5.00210690      22.21920909
Ti       0.82287615       0.62035943      22.96395471
Ti       2.93212139       2.26837114      23.43251580
Ti       0.75592542       5.59086188      23.67901532
Ti       3.58980400       7.39494191      24.33408830
Ti       0.37619081       2.79427850      25.04410928
Ti       2.70454747       4.56449256      25.04414020
