52
Lattice="4.6568 0.0 0.0 0.0 7.770572 0.0 0.0 0.0 25.044546" Properties=species:S:1:pos:R:3:forces:R:3 job_name=CSL7-Zn-Zn-35-d-4.99 GB_type=CSL7 element=Zn system=Zn-35-d-4.99 distance=4.99 energy=-394.23083694 stress_kbar_3x3="_JSON [[-14.58269972, 0.04958313, -0.47412081], [0.04958314, -26.17530369, 0.23939267], [-0.4741208, 0.23939268, -22.99819966]]" pbc="T T T"
Ti       1.82407795       7.37519193       0.69758430      -0.00110081       0.00055333       0.00441476
Ti       4.62678657       5.59130664       1.34604793      -0.00205298      -0.00250819       0.00596598
Ti       2.46206871       2.26821724       1.59212001      -0.00253222      -0.00706306       0.00217060
Ti       4.56538117       0.61170931       2.06200556      -0.00061189      -0.00299799       0.00350458
Ti       2.35830930       5.00320264       2.80762911       0.00098251      -0.00675589      -0.00301773
Ti       0.02496817       3.32837547       3.00021559       0.00020758      -0.00265777       0.00372145
Ti       2.31237739       0.01056810       3.63971785      -0.00086665      -0.00247330       0.00418359
Ti       0.02987486       6.09889019       4.07722170       0.00223555      -0.00331663      -0.00283171
Ti       2.34353887       2.76180534       4.59315472       0.00203525      -0.01047673       0.00269795
Ti       0.00687915       1.11185289       4.98805996       0.00096848      -0.00556948       0.00294346
Ti       2.34820610       5.56331375       5.60930351       0.00192084      -0.00833426      -0.00338065
Ti       0.01237852       3.86905064       5.94615814       0.00071422      -0.01313820       0.00181438
Ti       2.33853849       0.55737206       6.57695684       0.00321694       0.00087765      -0.00530708
Ti       0.02252698       6.63060411       6.91247213       0.00175541      -0.00214542      -0.00012422
Ti       2.33628710       3.31352482       7.53590524       0.00219587      -0.00643874       0.00223185
Ti       0.01552164       1.66376181       7.92396515       0.00309412      -0.00063157      -0.00761056
Ti       2.35943125       6.08795199       8.44267183       0.00154450      -0.00720184       0.00726367
Ti       4.64231300       4.41215048       8.89059645       0.00296408      -0.00844002       0.00220690
Ti       2.35438692       1.08881299       9.51123576       0.00284727       0.00244083       0.00009929
Ti       0.03499910       7.18443677       9.70044357       0.00260048      -0.00641558      -0.00016182
Ti       2.22882211       3.79709995      10.48537793       0.00304800      -0.00058220      -0.00160063
Ti       0.11978745       2.13195860      10.90570487      -0.00511104       0.00574125      -0.00324030
Ti       2.32120673       6.59870978      11.18122062       0.00281764      -0.00448725       0.00234635
Ti       4.16352641       4.79270634      11.83054791      -0.01384591      -0.00833731      -0.00964470
Ti       2.70784827       1.62316846      12.54333388       0.00188287       0.01024719      -0.00732361
Ti       0.36746903       7.61241802      12.53958404       0.00270899       0.00597069      -0.00325226
Ti       1.25693116       4.82996503      13.30521820       0.01253113      -0.00465534       0.00496392
Ti       3.14457851       6.57760928      13.93821557      -0.00959950       0.00316391       0.00090826
Ti       0.61756159       2.16661645      14.10085250       0.00473588       0.00769353      -0.00387970
Ti       3.19673250       3.78888723      14.63238910      -0.00102142       0.00591223      -0.00152604
Ti       0.75554274       7.25834651      15.37269759      -0.00412325      -0.00865834      -0.00312727
Ti       3.09186238       1.13623540      15.54212699       0.00088888      -0.00091408      -0.00019373
Ti       0.74109778       4.49788469      16.25822416      -0.00131913       0.00079938      -0.01173854
Ti       3.05008189       6.15303063      16.64593890      -0.00475709       0.00260015       0.00183315
Ti       0.72486549       1.77915451      17.12213834       0.00236431       0.01089757       0.00294937
Zn       3.06353646       3.36134306      17.48249075       0.00420076       0.00284881      -0.00052023
Ti       0.72808968       6.76005843      18.14531029      -0.00149370       0.00596957      -0.00414417
Ti       3.06218673       0.65685805      18.49952957      -0.00176642       0.00562591       0.00085302
Ti       0.73175533       3.88965067      19.03625269       0.00016687       0.00132135       0.00050378
Ti       3.05567078       5.60018921      19.36255622      -0.00126706       0.00043016       0.00700255
Ti       0.73866457       1.10983932      20.11288201      -0.00340415      -0.00082798       0.00332027
Ti       3.04381322       2.75047884      20.39438284       0.00104850       0.00781751      -0.00485224
Ti       0.71778728       6.07488256      20.93569964      -0.00276781       0.00407464      -0.00181416
Ti       3.09187669       7.74948008      21.39166605       0.00039739       0.01627060      -0.00289465
Ti       0.70878484       3.32308656      22.01619900      -0.00379104       0.00062432      -0.00359433
Ti       3.04143741       4.98028040      22.16150378      -0.00024364       0.00827692      -0.00203673
Ti       0.83960301       0.60561640      22.99085812      -0.00408027       0.00610255      -0.00729585
Ti       2.94670181       2.25497636      23.39739035      -0.00021720       0.00287924       0.00425263
Ti       0.78107056       5.58624078      23.63929081      -0.00032288      -0.00395633       0.00743591
Ti       3.57924145       7.37698609      24.32226491      -0.00156165       0.00615169       0.00505293
Ti       0.37385183       2.79333181      25.02066061      -0.00036141       0.00182501       0.00395446
Ti       2.71005401       4.55202598      25.01164871       0.00214476       0.00186747       0.00651783
