52
Lattice="4.6568 0.0 0.0 0.0 7.770572 0.0 0.0 0.0 25.044546" Properties=species:S:1:pos:R:3:forces:R:3 job_name=CSL7-Cu-Cu-39-d-6.91 GB_type=CSL7 element=Cu system=Cu-39-d-6.91 distance=6.91 energy=-396.41120561 stress_kbar_3x3="_JSON [[-20.08099782, 0.01824505, -0.21802598], [0.01824504, -28.52989039, 0.68096029], [-0.21802598, 0.68096024, -26.81097395]]" pbc="T T T"
Ti       1.82228326       7.39161435       0.67452041       0.00445554       0.00231798       0.00198281
Ti       4.62949179       5.58959019       1.33210194      -0.00601982      -0.00099524       0.00450748
Ti       2.46535482       2.28410801       1.58319589       0.00256824       0.00388816      -0.00052913
Ti       4.56292772       0.61647268       2.05483450      -0.00415895       0.00489919       0.00418872
Ti       2.35251894       5.00747235       2.78789588       0.00179010       0.00125929       0.00148290
Ti       0.02395184       3.32889954       3.00074118       0.00073768       0.00459666      -0.00024931
Ti       2.31290572       0.01486265       3.63165206       0.00174115      -0.00398393      -0.00051630
Ti       0.02703512       6.10196444       4.06514516       0.00153460      -0.00257678       0.00231775
Ti       2.34263045       2.76511539       4.58419906       0.00163132      -0.00019640      -0.00203589
Ti       0.00703350       1.11322614       4.98740764       0.00108576      -0.00399323       0.00084622
Ti       2.34527557       5.56749940       5.59723683       0.00122237       0.00089870       0.00057400
Ti       0.00936857       3.86955860       5.94311639       0.00102928      -0.00060159       0.00125714
Ti       2.33968593       0.56352066       6.57420534       0.00079721      -0.00388196       0.00080366
Ti       0.01785037       6.63542079       6.90849303       0.00151176      -0.00434460       0.00022472
Ti       2.33445272       3.31718687       7.52889115       0.00177168      -0.00187498       0.00010206
Ti       0.01568198       1.66795971       7.93245177       0.00087347      -0.00580040       0.00144225
Ti       2.35845107       6.09788274       8.44138409       0.00255201       0.00000688      -0.00500764
Ti       4.63899224       4.41903385       8.88542575       0.00223259       0.00007206      -0.00044703
Ti       2.35571916       1.09210010       9.52044689       0.00230435      -0.00887680       0.00052790
Ti       0.03072544       7.19192644       9.71379967       0.00280343      -0.00798401      -0.00072418
Ti       2.24129664       3.79905913      10.45732405       0.00214682      -0.00301163       0.00537988
Ti       0.13692198       2.14134570      10.93848315       0.00283186      -0.00588591       0.00310481
Ti       2.30358841       6.59166783      11.17772282      -0.00402181      -0.00493236       0.00007399
Ti       4.14502788       4.80014497      11.84129180       0.01495188      -0.00310005       0.00936941
Ti       2.71172420       1.60315504      12.55457787       0.00042783      -0.00710794       0.00257054
Ti       0.38561959       7.61150257      12.56545782       0.00492135      -0.00477080      -0.00242978
Ti       1.26529481       4.78856778      13.23230656      -0.01370268      -0.00598712      -0.00605666
Ti       3.10590905       6.57349249      13.95487614      -0.00053355      -0.00591624      -0.00551366
Ti       0.61890934       2.13028844      14.16917884      -0.00423212      -0.00099455      -0.00061011
Ti       3.16482016       3.78455095      14.61520427      -0.00524334      -0.00419120      -0.00699469
Ti       0.71817582       7.20509835      15.42622306      -0.00082015      -0.00084274      -0.00276782
Ti       3.04391055       1.08571665      15.59252851      -0.00089713       0.00293892      -0.00753933
Ti       0.77460975       4.42991683      16.14172396      -0.00235264      -0.00256698      -0.00389277
Ti       3.05589463       6.04774056      16.68663451      -0.00071657      -0.00033829       0.00253458
Ti       0.73272596       1.70010091      17.16495239       0.00010250       0.00437334      -0.00457861
Ti       3.06001111       3.34297698      17.52399387      -0.00207168       0.00254809      -0.00448309
Ti       0.73493491       6.66287773      18.19906118      -0.00209651      -0.00358574      -0.00333567
Ti       3.07285964       0.58150988      18.53017870      -0.00152757      -0.00179677      -0.00306055
Ti       0.73454047       3.97574534      19.10568560      -0.00076221       0.01243954      -0.00706678
Cu       3.05980710       5.56203847      19.40715931       0.00044878       0.00586296      -0.01098057
Ti       0.75287555       1.21364313      20.05738855      -0.00226853       0.00417730       0.00070198
Ti       3.05707814       2.81879521      20.46036875      -0.00160558       0.00587461      -0.00095816
Ti       0.73163910       6.13099996      20.87544764      -0.00196062       0.00727979      -0.00099321
Ti       3.11476044       0.03576331      21.31673623      -0.00288978       0.00073857       0.00887802
Ti       0.70759351       3.36531194      22.08230478       0.00131809       0.00499166       0.00410830
Ti       3.04630916       5.02268715      22.13047869      -0.00109914       0.00487659       0.00122945
Ti       0.84548485       0.61838148      22.92083586       0.00140476       0.00731552       0.00012144
Ti       2.94751322       2.26305664      23.39448671      -0.00128113       0.00581592       0.00412045
Ti       0.77846220       5.64918113      23.62068221      -0.00346909      -0.00156844       0.00460550
Ti       3.57978822       7.39132546      24.29038442      -0.00366466       0.00676419       0.00578484
Ti       0.37687116       2.79906468      25.03087403       0.00165067       0.00253234       0.00270686
Ti       2.72359716       4.56952103      24.96592536       0.00454817       0.00523842       0.00522328
