52
Lattice="4.6568 0.0 0.0 0.0 7.770572 0.0 0.0 0.0 25.044546" Properties=species:S:1:pos:R:3:forces:R:3 job_name=CSL7-Al-Al-35-d-4.99 GB_type=CSL7 element=Al system=Al-35-d-4.99 distance=4.99 energy=-397.55988639 stress_kbar_3x3="_JSON [[-14.04316806, 0.11230586, -0.40045181], [0.11230588, -24.69810366, -0.00892119], [-0.4004518, -0.00892123, -20.98885755]]" pbc="T T T"
Ti       1.82331628       7.38194370       0.70896778      -0.00164182      -0.00312108      -0.00154070
Ti       4.62826029       5.59706010       1.35528461       0.00078532      -0.00145856      -0.00589281
Ti       2.45835297       2.27161360       1.60347781       0.00252717       0.00199177      -0.00444284
Ti       4.56354009       0.62016980       2.07135935      -0.00062010      -0.00537854      -0.00302031
Ti       2.35737383       5.00655936       2.81656719       0.00079907      -0.00139805      -0.00064080
Ti       0.02300494       3.33510361       3.00672008       0.00072005      -0.00422052      -0.00246752
Ti       2.30797284       0.01224640       3.64616979       0.00392848       0.00118790      -0.00438812
Ti       0.02773799       6.10498534       4.08150086      -0.00011375      -0.00232207      -0.00127665
Ti       2.33955971       2.76415864       4.59654414       0.00317217      -0.00066772      -0.00180397
Ti       0.00236821       1.11696035       4.99011074       0.00218765       0.00052421      -0.00096258
Ti       2.34393998       5.56769928       5.61152869       0.00356469      -0.00368736      -0.00065676
Ti       0.00679108       3.87460467       5.94520392       0.00298379      -0.00177900      -0.00028759
Ti       2.33400661       0.56462919       6.57571708       0.00241194      -0.00337361       0.00045790
Ti       0.01756965       6.64072055       6.91029631       0.00364912      -0.00529260       0.00010157
Ti       2.33061695       3.32210958       7.53122382       0.00231566      -0.00321294       0.00100373
Ti       0.00975284       1.67497474       7.92001908       0.00373809      -0.00480281       0.00218164
Ti       2.35749044       6.09946724       8.43800700       0.00081506      -0.00806616       0.00075915
Ti       4.63789211       4.42414703       8.88010743       0.00251073      -0.00433845       0.00597169
Ti       2.34953399       1.10030117       9.50423322       0.00104943      -0.00878524       0.00115294
Ti       0.02831764       7.19818931       9.69681578       0.00087284      -0.00652552      -0.00506695
Ti       2.23040119       3.80635877      10.46251609      -0.00145022      -0.00207852       0.00731597
Ti       0.12067090       2.15005695      10.90349922      -0.00132643      -0.01123899       0.00116659
Ti       2.31105852       6.61010797      11.16926429       0.00494476      -0.01420752       0.00239161
Ti       4.14489468       4.80386699      11.82086884       0.00612259      -0.00479666       0.00736323
Ti       2.70735035       1.63400229      12.52099004       0.00308503      -0.00173234       0.00279720
Ti       0.36901440       7.61998604      12.52901942      -0.00739877      -0.00956085       0.00256241
Ti       1.25766316       4.82189459      13.27854695       0.00569611       0.00536819       0.01038258
Ti       3.12280743       6.59956732      13.91946844       0.00374858      -0.00576980       0.00486091
Ti       0.61482634       2.15593165      14.09509875      -0.00871050       0.00815410      -0.00831672
Ti       3.18674173       3.79496059      14.62632320      -0.00222306       0.00264315       0.00169907
Ti       0.74243779       7.23322409      15.36189462       0.00926144       0.01041253       0.00494962
Ti       3.08674384       1.13322589      15.55057611       0.00032844      -0.00112186      -0.00216594
Ti       0.75021060       4.44625724      16.22743528      -0.00526286       0.00867605       0.01543105
Ti       3.04546101       6.12748226      16.63527102      -0.00001554       0.01385803       0.00484264
Ti       0.74228268       1.75149530      17.12062635      -0.00131651       0.01842107       0.00427235
Al       3.07925629       3.34193406      17.48743862      -0.00675575       0.01018479       0.00203671
Ti       0.73341513       6.73658132      18.14998421      -0.00041588       0.01393904       0.00164717
Ti       3.06894890       0.63042670      18.49885007      -0.00473628       0.00779367      -0.00292654
Ti       0.75461295       3.87316862      19.03640774       0.00078459      -0.00045251      -0.00964929
Ti       3.06149897       5.57596215      19.38079107      -0.00144521       0.01361595      -0.00550864
Ti       0.75132757       1.09253925      20.12212556      -0.00139344       0.01243057       0.00167851
Ti       3.05544654       2.75334242      20.39214874      -0.00807032       0.00414397      -0.00201416
Ti       0.72540870       6.07346806      20.94145981      -0.00243861      -0.00365103      -0.00224549
Ti       3.10550636       7.75335948      21.40928242      -0.00483278      -0.00522647       0.00176142
Ti       0.71654994       3.32213213      22.01474886      -0.00101012       0.00814628       0.00102457
Ti       3.04763546       4.98264433      22.18255652      -0.00481935      -0.00264139      -0.00639989
Ti       0.84666160       0.60804181      22.99472544      -0.00090807      -0.00353995       0.00527187
Ti       2.94733851       2.26055629      23.41265979      -0.00467819       0.00035763      -0.00380862
Ti       0.78358155       5.58819548      23.65090288      -0.00330283       0.00252860       0.00067592
Ti       3.58474762       7.38247846      24.33290318       0.00150224      -0.00134678      -0.01059183
Ti       0.37302551       2.80022793      25.03138125       0.00131295      -0.00368934      -0.00396128
Ti       2.70596626       4.56009453      25.02800289       0.00006837      -0.00489324      -0.00572405
