52
Lattice="4.6568 0.0 0.0 0.0 7.770572 0.0 0.0 0.0 25.044546" Properties=species:S:1:pos:R:3:forces:R:3 job_name=CSL7-Cu-Cu-37-d-5.94 GB_type=CSL7 element=Cu system=Cu-37-d-5.94 distance=5.94 energy=-396.21743126 stress_kbar_3x3="_JSON [[-18.82134679, -0.20902031, 0.30910846], [-0.2090203, -30.70650878, -0.17689131], [0.30910846, -0.17689133, -23.23044322]]" pbc="T T T"
Ti       1.81552019       7.39058852       0.68180928       0.00586863      -0.00147127      -0.00714581
Ti       4.63637279       5.59043787       1.34805041      -0.00202119      -0.00566382       0.00331316
Ti       2.45964330       2.27137140       1.60135243       0.00207954      -0.00368927       0.00048385
Ti       4.56778080       0.61441324       2.06544509       0.00377309       0.00228693      -0.00068624
Ti       2.35938034       5.00859002       2.81401922       0.00472830       0.00025511      -0.00784565
Ti       0.02204283       3.32794788       3.00184507       0.00212827       0.00367933       0.00050412
Ti       2.30906332       0.01104844       3.64090296       0.00056291      -0.00336313      -0.00204872
Ti       0.02846376       6.10007938       4.08128232       0.00114373      -0.00121618       0.00016796
Ti       2.34160074       2.76407837       4.59314758       0.00115885       0.00265316       0.00054872
Ti       0.00510617       1.11603975       4.99131297       0.00142035      -0.00293608      -0.00415303
Ti       2.34808031       5.56857270       5.61045054       0.00114646      -0.00606972      -0.00154685
Ti       0.00879294       3.87150025       5.94669098       0.00220546      -0.00163370      -0.00461857
Ti       2.33737669       0.56731630       6.57834304       0.00164462      -0.00796067       0.00311268
Ti       0.01912094       6.64079426       6.91056439       0.00192897      -0.00377598       0.00859894
Ti       2.33218274       3.32034058       7.53190097       0.00114821       0.00150998      -0.00350534
Ti       0.01292193       1.67389273       7.93306050       0.00233551      -0.00526676       0.00720587
Ti       2.35828909       6.10398630       8.44135568       0.00219335       0.00212629       0.01069976
Ti       4.63475652       4.42332892       8.88280472      -0.00048590       0.00770547       0.00309937
Ti       2.35587487       1.09944002       9.51920677      -0.00001656      -0.01617479       0.00115722
Ti       0.02906012       7.19809677       9.70930554      -0.00159398      -0.01234798      -0.00463235
Ti       2.23652259       3.80964667      10.44644142       0.00711599       0.01233279       0.01279326
Ti       0.13572779       2.15601167      10.93223751       0.00137454      -0.00813611      -0.00271026
Ti       2.30174172       6.60578063      11.17162837       0.00622591      -0.01407246      -0.01054068
Ti       4.13753302       4.79901825      11.84477606      -0.00995652       0.00505623      -0.00667355
Ti       2.70196233       1.63226318      12.55523509      -0.00316979      -0.00471377      -0.00134589
Ti       0.36683333       7.62989942      12.52683935       0.00441044      -0.00014271       0.00370143
Ti       1.26490503       4.77562165      13.24984129       0.00780877       0.00000418       0.00140669
Ti       3.10764124       6.59252921      13.90931323      -0.00589192      -0.00723779      -0.00328660
Ti       0.61627664       2.14313137      14.18285275      -0.00147320      -0.00844771      -0.00132249
Ti       3.15620915       3.79694754      14.67042767      -0.01419179       0.00049138      -0.01001048
Ti       0.73349464       7.15396403      15.31756576      -0.00732657       0.01656420      -0.00485345
Ti       3.05844966       1.04974079      15.57643290       0.00096815      -0.00248529       0.01607838
Ti       0.76320370       4.43154171      16.21952256       0.00322102      -0.00035771       0.00004572
Ti       3.04936236       6.14114411      16.64293448       0.00010389       0.01511620       0.00924712
Ti       0.73432284       1.66670222      17.16942627      -0.00397059      -0.01514505       0.00522003
Ti       3.07881886       3.31662280      17.57491838       0.00053682      -0.00822117       0.00503140
Ti       0.74219034       6.75405501      18.13665168      -0.00143362       0.01717311      -0.00475022
Cu       3.06155224       0.60200199      18.46672594      -0.00209930       0.00239005      -0.00387228
Ti       0.73902428       3.97544239      19.08863141      -0.00403991      -0.00339260       0.00178946
Ti       3.06385254       5.67544172      19.43628521      -0.00253948       0.00599188      -0.00662264
Ti       0.72400085       1.14128829      19.98121612      -0.00071279      -0.00265478      -0.01615447
Ti       3.06589551       2.81030728      20.36738277      -0.00295648      -0.00243116      -0.00246848
Ti       0.71859129       6.11501663      20.97682630       0.00188946       0.01270131       0.00129794
Ti       3.10742419       0.02283045      21.35169573      -0.00130279       0.01159597      -0.00901454
Ti       0.73514091       3.30313794      21.99712850       0.00283954      -0.00129660       0.00230515
Ti       3.05023873       5.00556174      22.18093528      -0.00139543       0.00320126       0.00130271
Ti       0.85706150       0.61212786      22.91361338       0.00335905       0.00642288       0.00234418
Ti       2.95697560       2.27591513      23.39912805      -0.00118768       0.00189196      -0.00246442
Ti       0.78158564       5.56585883      23.66561914      -0.00321523       0.00412521       0.00651599
Ti       3.59931964       7.38225236      24.29257645      -0.00690747       0.00402171       0.01244788
Ti       0.37956787       2.77289265      25.02361820      -0.00042863       0.00801051      -0.00404722
Ti       2.71403449       4.55408341      25.02634462       0.00299700       0.00299716       0.00590125
