52
Lattice="4.6568 0.0 0.0 0.0 7.770572 0.0 0.0 0.0 25.044546" Properties=species:S:1:pos:R:3:forces:R:3 job_name=CSL7-Cu-Cu-32-d-3.65 GB_type=CSL7 element=Cu system=Cu-32-d-3.65 distance=3.65 energy=-396.22766088 stress_kbar_3x3="_JSON [[-16.47963178, 0.30638627, 0.38383802], [0.30638628, -28.55123809, 0.16999375], [0.38383802, 0.16999376, -19.55073526]]" pbc="T T T"
Ti       1.81115216       7.39840701       0.69497501       0.00598702       0.00847421      -0.00806580
Ti       4.63421236       5.60272831       1.36028100       0.00541442       0.00249566      -0.00017260
Ti       2.45837664       2.27570264       1.60334594       0.00355712       0.00723427      -0.00123321
Ti       4.56786408       0.62420004       2.07467897       0.00278870       0.01319373      -0.00146101
Ti       2.36033617       5.01135216       2.82118349       0.00525060      -0.00010290      -0.00108608
Ti       0.02436228       3.33820619       3.00886691       0.00103673      -0.00272809      -0.00524223
Ti       2.30947274       0.01115873       3.64446039       0.00487842       0.00506843      -0.00480789
Ti       0.03092018       6.10282184       4.08996227       0.00140042       0.00157446       0.00129091
Ti       2.34113913       2.76655093       4.59970487       0.00266696      -0.00222545       0.00273503
Ti       0.00245637       1.11443048       4.99462568       0.00248997       0.00906110      -0.00270924
Ti       2.34990264       5.56999748       5.61622545       0.00340373      -0.00076883      -0.00345487
Ti       0.01042192       3.87452549       5.95079838       0.00298210      -0.00323143       0.00124258
Ti       2.33462455       0.56446854       6.57966664       0.00193223       0.00842433       0.00360815
Ti       0.01938716       6.63593216       6.91662730       0.00282129       0.00124159       0.00686586
Ti       2.33471608       3.32651692       7.53487752       0.00190053      -0.00148159       0.00208483
Ti       0.01087107       1.67166748       7.92677630       0.00224948       0.00272330       0.00136587
Ti       2.35664799       6.10538270       8.44457816       0.00073224      -0.00077030       0.00702506
Ti       4.63531093       4.42182889       8.89106790       0.00139560      -0.00094667       0.00323689
Ti       2.34571552       1.12069160       9.51106653       0.00167397      -0.00386223       0.00305433
Ti       0.03830566       7.19796329       9.70976517      -0.00024216       0.00045706      -0.00071768
Ti       2.22599515       3.82978876      10.46758371       0.00237631       0.00482069       0.00299129
Ti       0.11461732       2.15112538      10.91937254       0.00007777      -0.00617773       0.00227492
Ti       2.32851874       6.64074048      11.16839769       0.00520342      -0.00193718      -0.00500458
Ti       4.15142392       4.79359085      11.84943169       0.00530274       0.00111536       0.01029075
Ti       2.68709225       1.71301962      12.56480220      -0.00326767      -0.00558186       0.01006456
Ti       0.38932343       7.63603737      12.55190593       0.00190998      -0.00100000      -0.00013204
Ti       1.23281015       4.85082236      13.37755867       0.00120026      -0.00624569       0.00118498
Ti       3.07050421       6.65806900      13.83414667      -0.01465621      -0.00902594       0.00205349
Ti       0.60572053       2.15546549      14.19603269       0.00121475      -0.00764711      -0.00058399
Ti       3.19055302       3.80611846      14.70400101      -0.00870604      -0.00564353      -0.00657833
Ti       0.73178402       7.11280697      15.32496149      -0.00211445      -0.00738901       0.00740615
Ti       3.06889774       1.02683856      15.55405051      -0.00744712      -0.00121592      -0.00004756
Cu       0.77675418       4.39545123      16.20000259      -0.00030561      -0.01006717       0.00424598
Ti       3.05213288       5.98942339      16.59370991      -0.00309048      -0.00571231       0.00874182
Ti       0.73266699       1.69154223      17.06206439      -0.00179989      -0.01133830       0.00379476
Ti       3.08308733       3.30775004      17.47741729      -0.00199471      -0.00711280       0.00900537
Ti       0.74782142       6.60107049      18.10403980      -0.00172416      -0.00277915       0.00027746
Ti       3.07132429       0.55438383      18.42879869      -0.00134672      -0.01206682      -0.00007465
Ti       0.74492325       3.91951006      19.06648393      -0.00086033       0.00218039      -0.00225369
Ti       3.06927586       5.60866038      19.43536233      -0.00405036      -0.00224932      -0.00910252
Ti       0.74624075       1.12404660      20.00513541      -0.00089191       0.00744899      -0.00397668
Ti       3.06821364       2.78241003      20.40369261      -0.00161055      -0.00581098      -0.00511810
Ti       0.72623973       6.13318135      20.93543855      -0.00148761       0.00405416      -0.01441739
Ti       3.10618465       0.04873987      21.38633468      -0.00384680      -0.00012583      -0.00387867
Ti       0.72573762       3.34733917      21.99210878       0.00041918      -0.00117022      -0.00197238
Ti       3.05068919       5.02133558      22.20810189      -0.00106509       0.00399148      -0.00246750
Ti       0.84333310       0.63117322      22.93383059      -0.00273407       0.00813022      -0.00083971
Ti       2.94890107       2.28789162      23.40973791      -0.00198340       0.00681822      -0.00654497
Ti       0.77118133       5.59522147      23.66410414      -0.00069702       0.00733146      -0.00795041
Ti       3.59413041       7.40444660      24.32074453      -0.00737536       0.00992817       0.00553249
Ti       0.37855239       2.80126750      25.03035498       0.00246229       0.00717262       0.00084787
Ti       2.71006475       4.57684178      25.03438068      -0.00143053       0.00347446      -0.00132758
