52
Lattice="4.6568 0.0 0.0 0.0 7.770572 0.0 0.0 0.0 25.044546" Properties=species:S:1:pos:R:3:forces:R:3 job_name=CSL7-Cu-Cu-24-d-0.00 GB_type=CSL7 element=Cu system=Cu-24-d-0.00 distance=0.0 energy=-395.94842041 stress_kbar_3x3="_JSON [[-16.41398389, -0.00594188, -1.68874092], [-0.00594186, -29.93614247, 0.00236783], [-1.68874092, 0.00236782, -21.70015596]]" pbc="T T T"
Ti       1.81851472       7.39541826       0.71043717      -0.00300089      -0.00084329       0.00196714
Ti       4.63942524       5.59134608       1.36667291       0.00268380       0.00003430       0.00076245
Ti       2.46499741       2.27444985       1.61832993       0.00105718      -0.00239805       0.00058885
Ti       4.57082816       0.61849290       2.08737473       0.00256213      -0.00232009      -0.00029450
Ti       2.36871856       5.00424638       2.83071558       0.00465119      -0.00149172      -0.00051271
Ti       0.03133958       3.32934872       3.03042777       0.00419940      -0.00208813      -0.00111237
Ti       2.32339355       0.00826773       3.66452118       0.00416700       0.00153502      -0.00188413
Ti       0.04568614       6.09554570       4.09943253       0.00547894       0.00130256      -0.00576075
Ti       2.35538017       2.75757040       4.62053225       0.00581201      -0.00307794      -0.00428299
Ti       0.02174241       1.11075862       5.01179440       0.00584038      -0.00047432       0.00012790
Ti       2.37124176       5.55410303       5.62625479       0.00416483       0.00230606      -0.00288406
Ti       0.02591559       3.86224727       5.96693411       0.00445080      -0.00316027      -0.00118596
Ti       2.35898886       0.55549441       6.60048371       0.00323162       0.00254847       0.00029771
Ti       0.04594502       6.61441542       6.91416782       0.00365601       0.00068037       0.00050558
Ti       2.34463749       3.32124723       7.55540291       0.00295231      -0.00016442      -0.00131209
Ti       0.04539181       1.66982436       7.94232671       0.00504924       0.00098031      -0.00071696
Ti       2.40040568       6.08649071       8.46130279       0.00361768       0.00266669       0.00141733
Ti       4.62268701       4.38830411       8.91409210      -0.00085472       0.00196094       0.00232875
Ti       2.41280432       1.10256172       9.53626157       0.00753607       0.00357872      -0.00038585
Ti       0.10432179       7.19842960       9.69824513       0.00537094       0.00200677      -0.00315534
Ti       2.19278480       3.84483223      10.48491204       0.00339492       0.00517820      -0.00044176
Ti       0.16482396       2.13495291      10.94056636      -0.00015569      -0.00227467       0.00353901
Ti       2.36083335       6.65839382      11.15428372       0.00398897       0.00000869       0.00445824
Ti       4.15455433       4.88272573      11.80571439      -0.00160095      -0.00136133       0.00042171
Cu       2.70481323       1.75463556      12.52178743       0.00012578       0.00428633       0.00036759
Ti       0.37710142       7.68540397      12.52211131      -0.00019383      -0.00493439       0.00006684
Ti       1.25494581       4.88297729      13.23786853       0.00109599      -0.00150863      -0.00148648
Ti       3.04794893       6.65897022      13.88901858      -0.00351035       0.00019552      -0.00566714
Ti       0.58719496       2.13516850      14.10256309       0.00105536      -0.00158711      -0.00298718
Ti       3.21666170       3.84551068      14.55860938      -0.00292776       0.00422718       0.00022408
Ti       0.64782435       7.19856755      15.34566310      -0.00520913       0.00290882       0.00231993
Ti       2.99569130       1.10275878      15.50726916      -0.00634374       0.00443004       0.00030107
Ti       0.78671808       4.38861574      16.12915739      -0.00018756       0.00054000      -0.00188798
Ti       3.00858629       6.08678125      16.58229982      -0.00445688       0.00227667      -0.00097795
Ti       0.70606455       1.67003427      17.10130681      -0.00465350       0.00072474       0.00180623
Ti       3.06345334       3.32153057      17.48810903      -0.00254904      -0.00019182       0.00183497
Ti       0.70566873       6.61446361      18.12960595      -0.00397209       0.00138333       0.00040657
Ti       3.04928961       0.55565434      18.44296772      -0.00382199       0.00273779       0.00059079
Ti       0.72523671       3.86260669      19.07667901      -0.00391245      -0.00364520       0.00127829
Ti       3.03694062       5.55439515      19.41759339      -0.00427047       0.00194685       0.00288059
Ti       0.72972078       1.11096263      20.03189757      -0.00538554      -0.00028823      -0.00023717
Ti       3.05289868       2.75779526      20.42300874      -0.00507952      -0.00329109       0.00344092
Ti       0.70623023       6.09578424      20.94430969      -0.00519769       0.00192263       0.00485635
Ti       3.08550162       0.00830879      21.37928814      -0.00357486       0.00157921       0.00121322
Ti       0.72078888       3.32980345      22.01315118      -0.00464710      -0.00252560       0.00100581
Ti       3.04026002       5.00476536      22.21278801      -0.00465253      -0.00186762       0.00075344
Ti       0.83879414       0.61879153      22.95647405      -0.00267327      -0.00222217      -0.00026902
Ti       2.94484020       2.27458824      23.42456106      -0.00194462      -0.00306776      -0.00059515
Ti       0.76972188       5.59178831      23.67695366      -0.00277446      -0.00030053       0.00003295
Ti       3.59135888       7.39583753      24.33350789       0.00238813      -0.00113149      -0.00172414
Ti       0.37649311       2.79508121      25.04393214      -0.00073028      -0.00377688      -0.00003385
Ti       2.70478117       4.56959473      25.04395390      -0.00024976      -0.00395345       0.00000121
