52
Lattice="4.6568 0.0 0.0 0.0 7.770572 0.0 0.0 0.0 25.044546" Properties=species:S:1:pos:R:3:forces:R:3 job_name=CSL7-Zn-Zn-27-d-1.36 GB_type=CSL7 element=Zn system=Zn-27-d-1.36 distance=1.36 energy=-394.33620366 stress_kbar_3x3="_JSON [[-14.56967032, 0.2014184, 0.41515578], [0.20141841, -23.64504466, -4.29888469], [0.4151558, -4.29888467, -23.62683185]]" pbc="T T T"
Ti       1.81793794       7.39648528       0.70508813      -0.00382487       0.00030602      -0.00121008
Ti       4.63868223       5.59395039       1.35988654       0.00391482       0.00556626      -0.00306016
Ti       2.45821636       2.28280264       1.62497635      -0.00420076       0.00096175      -0.00488031
Ti       4.56634823       0.62346219       2.09052693       0.00130033      -0.00201675      -0.00737704
Ti       2.36191501       5.02192249       2.83442909       0.00052872       0.00438386      -0.00329150
Ti       0.02595457       3.34375599       3.02704858       0.00142067      -0.00110477      -0.00487227
Ti       2.31094139       0.02433009       3.66363705       0.00062430       0.01250377       0.00328242
Ti       0.02916808       6.11511016       4.10509550       0.00040523       0.00877303      -0.00477632
Ti       2.34120223       2.78227930       4.61808201       0.00434234       0.00747509      -0.00134308
Ti       0.00173796       1.13198600       5.01208503       0.00224452       0.01597655      -0.00024225
Ti       2.34667745       5.58626728       5.63542083      -0.00000758       0.00634996       0.00226580
Ti       0.00339150       3.88783245       5.97103582       0.00055167       0.00352024      -0.00285319
Ti       2.33664255       0.58951818       6.60283841      -0.00150175       0.01586608      -0.00226497
Ti       0.01158641       6.66678343       6.93468506      -0.00098178       0.01582845       0.00114146
Ti       2.32487344       3.34772841       7.56525074       0.00116048       0.00739179      -0.00242443
Ti       0.01348660       1.69322796       7.96307594       0.00373193       0.01236984       0.00310966
Ti       2.33784537       6.14643584       8.46425102       0.00090008       0.00937012       0.00181265
Ti       4.63165731       4.45617644       8.89745246       0.00506601       0.00238914      -0.00037722
Ti       2.33428868       1.13192275       9.57373297       0.00506268       0.01321856       0.00149887
Ti       0.00645479       7.23429763       9.77718100      -0.00314396       0.00888639      -0.00674388
Ti       2.24456615       3.87866276      10.49354836      -0.00176408      -0.00252269       0.00154647
Ti       0.14528296       2.23996696      10.96597848       0.00973683       0.00737133      -0.00169224
Ti       2.30196833       6.61055861      11.16996622       0.00811125       0.00074218       0.00816375
Ti       4.25747487       4.93778216      11.80567278      -0.00087881       0.00945306      -0.00822500
Ti       2.74832240       1.68178107      12.54807577       0.00606986       0.00409678      -0.00521526
Ti       0.51371753       7.72900645      12.55974967      -0.01200242       0.01149809       0.00667719
Ti       1.22305558       4.76573689      13.28653095       0.00165945      -0.00346850       0.01080073
Zn       3.02421796       6.70834690      13.78775708       0.00529596       0.00591145      -0.01082345
Ti       0.60756812       2.19339544      14.14315085       0.00902198      -0.00684403      -0.00317733
Ti       3.22924427       3.94374107      14.54732528       0.00940954      -0.00042256       0.00505021
Ti       0.72289799       7.09169645      15.26876069      -0.01143685      -0.00954542       0.00416998
Ti       2.99991157       1.12875369      15.44430649      -0.00098929      -0.00401323       0.00691038
Ti       0.78114246       4.34325418      16.22547709       0.00320624      -0.00064303       0.00815591
Ti       3.05355186       6.05298171      16.54408635       0.00356078      -0.00574706       0.00198445
Ti       0.70526743       1.59451264      17.10991456      -0.00941727      -0.00820028      -0.00454750
Ti       3.06629667       3.25969789      17.48918114      -0.00456162      -0.01734573      -0.00605042
Ti       0.72971269       6.58645774      18.08378279       0.00402566      -0.00274804      -0.00301076
Ti       3.05625936       0.51077980      18.42920425      -0.00110217      -0.00657988      -0.00178134
Ti       0.73873173       3.80234022      19.09906937      -0.00162219      -0.01417937      -0.00507358
Ti       3.05032773       5.51740342      19.37609403       0.00211367      -0.00656898      -0.00612561
Ti       0.74273162       1.06956431      20.02693418      -0.00211888      -0.01038987      -0.00520593
Ti       3.06641274       2.71760840      20.42426221      -0.00407741      -0.01010991       0.00305254
Ti       0.71593056       6.06842331      20.91781018      -0.00006872      -0.00507107       0.00238829
Ti       3.09731690       7.74482206      21.37343265      -0.00207903      -0.00963827      -0.00106000
Ti       0.72549567       3.30266100      22.00972239      -0.00404547      -0.00841815       0.00640894
Ti       3.04559805       4.97667522      22.18741798      -0.00269918      -0.00836105       0.00822846
Ti       0.83810035       0.60330991      22.94048527      -0.00655088      -0.01608545       0.00774824
Ti       2.94451494       2.25960441      23.42130530      -0.00109114      -0.00815811       0.01160746
Ti       0.77202632       5.58181860      23.66235223      -0.00342739      -0.00223960       0.00791902
Ti       3.59469508       7.38128246      24.33060325      -0.00238564      -0.00384961      -0.00541349
Ti       0.37602103       2.79046256      25.04305074      -0.00309446       0.00085227       0.00038261
Ti       2.70352192       4.57185145      25.03683432      -0.00439136      -0.01679063      -0.00118688
