52
Lattice="4.6568 0.0 0.0 0.0 7.770572 0.0 0.0 0.0 25.044546" Properties=species:S:1:pos:R:3:forces:R:3 job_name=CSL7-Zn-Zn-33-d-4.09 GB_type=CSL7 element=Zn system=Zn-33-d-4.09 distance=4.09 energy=-394.33440375 stress_kbar_3x3="_JSON [[-16.25984443, 0.71553659, 0.72032915], [0.71553658, -26.1684626, -1.16088893], [0.72032918, -1.16088894, -23.05044606]]" pbc="T T T"
Ti       1.82503804       7.39262253       0.68997019      -0.01161850      -0.00134725       0.00209011
Ti       4.63148987       5.59873367       1.35116430       0.00441872       0.00246590      -0.00577255
Ti       2.45999836       2.27863329       1.60698692       0.00084868       0.00424558      -0.00509861
Ti       4.56703206       0.62112081       2.06612719       0.00291012      -0.00171350      -0.00268749
Ti       2.35906552       5.01122129       2.81087245       0.00295926      -0.00042720      -0.00432759
Ti       0.02577141       3.33571664       3.00668059       0.00296570      -0.00026498      -0.00174296
Ti       2.31091300       0.01457626       3.64125809       0.00262165       0.00449027      -0.00219042
Ti       0.02982928       6.10619766       4.08421437       0.00257076       0.00047045      -0.00330465
Ti       2.34080204       2.76789652       4.59227678       0.00313015       0.00194296      -0.00033883
Ti       0.00498700       1.11972350       4.99312831       0.00278714       0.00400238       0.00404031
Ti       2.34699557       5.57205293       5.61148551       0.00214638       0.00154224       0.00295558
Ti       0.00986908       3.87467532       5.94480045       0.00319168      -0.00069946       0.00273571
Ti       2.33625254       0.56946905       6.57766368       0.00264730       0.00184784       0.00505272
Ti       0.01742097       6.64218912       6.91913529       0.00202716       0.00303172       0.00540289
Ti       2.33340830       3.32698537       7.52457050       0.00110738      -0.00216306       0.00364279
Ti       0.01261999       1.67870140       7.93817164       0.00213836       0.00131068       0.00409040
Ti       2.36010852       6.10822587       8.44684400      -0.00072137      -0.00109900       0.00120332
Ti       4.64117693       4.42519712       8.88219321       0.00242352      -0.00524239      -0.00166523
Ti       2.34705856       1.11339491       9.51312791      -0.00236680       0.00571013      -0.00044991
Ti       0.02748252       7.20743994       9.72154112      -0.00053903       0.00141898       0.00197180
Ti       2.22187034       3.80645384      10.43760008      -0.00972670      -0.01192756      -0.00525682
Ti       0.13769830       2.15020610      10.95978422       0.00291663      -0.00560388       0.00403888
Ti       2.31117403       6.62953821      11.16766423      -0.00542618       0.01005819      -0.00512992
Ti       4.10607359       4.81836635      11.83261982       0.00618148      -0.00733730      -0.00416637
Ti       2.70505361       1.62622469      12.54986866      -0.00284852      -0.00309567       0.00230272
Ti       0.39067716       7.60855025      12.58441429       0.00028322       0.00283843       0.00153862
Ti       1.25576905       4.79374301      13.21985588      -0.00493091      -0.00572235      -0.00243954
Ti       3.02745598       6.59558635      13.89005579      -0.00231219       0.00950186       0.01099438
Ti       0.62714694       2.16646811      14.18595868      -0.00243773      -0.00537688       0.00286377
Ti       3.12931038       3.80601964      14.62023532       0.00248609      -0.01457537       0.00705790
Ti       0.74579951       7.27285700      15.43224670      -0.00244472       0.00877264       0.00848143
Ti       3.05371204       1.10739238      15.58116611      -0.00165645       0.00517815       0.00059525
Ti       0.79775310       4.50080486      16.20910934      -0.00254908      -0.00425924       0.00120169
Zn       3.10227876       6.07694383      16.57627268      -0.00217388       0.00126567       0.00012035
Ti       0.73908960       1.75963419      17.11349917      -0.00085880      -0.00217754      -0.00278801
Ti       3.07561015       3.36944874      17.53539136      -0.00297499      -0.00278839      -0.00426835
Ti       0.76431948       6.64027774      18.07810879      -0.00146127       0.00401509      -0.00552160
Ti       3.06942859       0.57827422      18.40047262      -0.00190836       0.00214771      -0.00445905
Ti       0.74608489       3.86021369      19.15708097      -0.00117455       0.00135649      -0.00139642
Ti       3.06479297       5.53971157      19.36739091      -0.00097607       0.00341425      -0.00231509
Ti       0.74640913       1.10023821      20.03903830      -0.00208132       0.00040570      -0.00370992
Ti       3.06479153       2.73900261      20.43911703      -0.00164437       0.00041373      -0.00093372
Ti       0.72866496       6.10708831      20.91475548      -0.00136092       0.00260110       0.00146317
Ti       3.10231126       7.76473932      21.36467054      -0.00007568       0.00216101      -0.00129849
Ti       0.71993279       3.31606109      22.05309400      -0.00012788      -0.00054961       0.00218587
Ti       3.04351819       4.99457892      22.16676623       0.00026749      -0.00044410       0.00060591
Ti       0.84404164       0.61433245      22.94620489      -0.00189785      -0.00524028      -0.00206101
Ti       2.94889721       2.25566511      23.42478237       0.00148478       0.00096847       0.00368125
Ti       0.78149972       5.60388650      23.64924702      -0.00220844       0.00229386       0.00323983
Ti       3.58159027       7.37710177      24.31532767       0.01358360      -0.00337518      -0.00828501
Ti       0.38209635       2.79449940      25.03215830       0.00179453      -0.00162126      -0.00084515
Ti       2.71871983       4.56253298      25.01145236       0.00061078      -0.00282003      -0.00110391
