52
Lattice="4.6568 0.0 0.0 0.0 7.770572 0.0 0.0 0.0 25.044546" Properties=species:S:1:pos:R:3:forces:R:3 job_name=CSL7-Zn-Zn-36-d-5.61 GB_type=CSL7 element=Zn system=Zn-36-d-5.61 distance=5.61 energy=-394.28524333 stress_kbar_3x3="_JSON [[-16.79470495, 0.11026066, -0.05661217], [0.11026066, -26.04737563, 0.44452716], [-0.05661218, 0.44452715, -22.98019938]]" pbc="T T T"
Ti       1.81370772       7.38836500       0.70310129      -0.00215330       0.00839900       0.00370816
Ti       4.62673363       5.59545233       1.36283712       0.00083458       0.00626319       0.00857945
Ti       2.45697462       2.27324386       1.61243660       0.00307516      -0.00009967      -0.00328238
Ti       4.56265462       0.62385664       2.07531188       0.00278272       0.00220884       0.00023838
Ti       2.35496254       5.00504622       2.82240760       0.00042843      -0.00289762      -0.00004917
Ti       0.02050826       3.33321660       3.01086230       0.00118951      -0.00043649      -0.00051310
Ti       2.30500439       0.00904840       3.64611602       0.00072793       0.00046958      -0.00279798
Ti       0.02746087       6.10472174       4.08614772       0.00033257      -0.00080293      -0.00538205
Ti       2.33728944       2.76199060       4.59875698       0.00269908      -0.00174360      -0.00598932
Ti       0.00101625       1.11756400       4.99063507      -0.00050478       0.00144932      -0.00218912
Ti       2.34395849       5.56723324       5.61370343      -0.00026358      -0.00026431      -0.00307151
Ti       0.00562872       3.87405986       5.94277661      -0.00038325      -0.00252123      -0.00111973
Ti       2.33395761       0.56557184       6.57723726      -0.00067352       0.00137361      -0.00335958
Ti       0.01418332       6.64297515       6.90912695      -0.00004781      -0.00031644       0.00093918
Ti       2.32889139       3.32385527       7.52813834       0.00001318      -0.00057361      -0.00104909
Ti       0.00895140       1.67880140       7.92420988       0.00274713       0.00009089       0.00114900
Ti       2.35378140       6.10540635       8.43768031       0.00115117      -0.00000998       0.00183357
Ti       4.63380004       4.42917109       8.87297665       0.00120708      -0.00036356       0.00010903
Ti       2.34990885       1.11007146       9.50749032       0.00177290       0.00017686      -0.00137550
Ti       0.02513696       7.20559131       9.70465818      -0.00162847       0.00096721       0.00428606
Ti       2.22979989       3.82027809      10.44303267      -0.00124552       0.00038504       0.00218055
Ti       0.13313005       2.16391758      10.91433040      -0.00053875      -0.00273332      -0.00076297
Ti       2.29885440       6.62172239      11.16517954       0.00172351       0.00261119       0.00233256
Ti       4.14701978       4.82586841      11.82001742      -0.00094599      -0.00339621       0.00618607
Ti       2.70567152       1.65036062      12.51222305       0.00511986       0.00372505       0.00098943
Ti       0.38237268       7.64644725      12.56183504       0.00079417       0.00613055      -0.00023160
Ti       1.25731158       4.83399226      13.24842766      -0.00442110       0.00372401       0.00791738
Ti       3.10691769       6.59654380      13.91669319       0.00802224      -0.01288137      -0.00433252
Ti       0.61834532       2.19443397      14.14226823      -0.00118559      -0.00269618      -0.00033570
Ti       3.17906663       3.84754105      14.63012397      -0.00767946       0.00078191       0.00207200
Ti       0.73156635       7.20941220      15.39568838      -0.00348798       0.00051962       0.00648834
Ti       3.04507094       1.10957992      15.46910978      -0.00201032      -0.00181237       0.00113205
Ti       0.79376505       4.42919499      16.22442394      -0.00053494      -0.00609881       0.00289364
Ti       3.06291048       6.09517558      16.66568803      -0.00096854      -0.00164684       0.00492458
Ti       0.74285452       1.64147668      17.10708749      -0.00322642      -0.00366708       0.00215256
Ti       3.08410309       3.25393020      17.49833869       0.00136017      -0.00102656       0.00591101
Zn       0.73636165       6.65812271      18.14976161       0.00348733      -0.01439672       0.00563284
Ti       3.06527564       0.49445146      18.46325992      -0.00153189      -0.00261532       0.00149164
Ti       0.75016763       3.87726986      19.05954036       0.00052065       0.00424659       0.00133887
Ti       3.06105155       5.57837950      19.39245301       0.00295141      -0.00944212      -0.00553700
Ti       0.74036955       1.10665590      20.05746332       0.00098386      -0.00382009      -0.00361717
Ti       3.07027340       2.75647029      20.41265056      -0.00439886       0.00162011       0.00181910
Ti       0.73004031       6.14963791      20.91452285       0.00009645      -0.00036233      -0.00215453
Ti       3.10936721       0.01666160      21.44621174      -0.00280295      -0.00330785      -0.00611987
Ti       0.72728363       3.34203268      22.00559570      -0.00259082       0.00381867      -0.00371493
Ti       3.04948722       5.01024946      22.16973266      -0.00227059      -0.00573228      -0.00480889
Ti       0.84270868       0.63105554      22.97525208      -0.00013728       0.00204103      -0.00124086
Ti       2.94798090       2.28230919      23.43010321       0.00439650       0.01087405      -0.01185255
Ti       0.78157142       5.60700695      23.64455115       0.00447835       0.00856894      -0.00677500
Ti       3.59069539       7.39331472      24.35074768      -0.01576503       0.00766955       0.00456347
Ti       0.38286949       2.80376428      25.03845053       0.00644257       0.00843774       0.00699931
Ti       2.71211677       4.56814319      25.02624792       0.00205822      -0.00088764      -0.00620612
