52
Lattice="4.6568 0.0 0.0 0.0 7.770572 0.0 0.0 0.0 25.044546" Properties=species:S:1:pos:R:3:forces:R:3 job_name=CSL7-Zr-Zr-25-d-0.00 GB_type=CSL7 element=Zr system=Zr-25-d-0.00 distance=0.0 energy=-401.14817895 stress_kbar_3x3="_JSON [[-8.30726006, 0.0066176, -0.58456219], [0.00661761, -11.07748987, 0.02823664], [-0.58456216, 0.02823668, -10.20344672]]" pbc="T T T"
Ti       1.81840486       7.38847262       0.70696880       0.01141523      -0.00712614      -0.01449605
Ti       4.62774717       5.59992028       1.35843280      -0.00383107       0.00397902      -0.01544671
Ti       2.45783783       2.26946750       1.60704782      -0.00205753      -0.00038642      -0.00499382
Ti       4.56710269       0.62572519       2.06489282       0.00287383      -0.00545131      -0.00703516
Ti       2.35795017       5.00389776       2.80865416       0.00184139       0.00155298      -0.01500297
Ti       0.02398453       3.34050400       2.99994592       0.00453296      -0.00173442      -0.00307224
Ti       2.31304396       0.00730648       3.63716690       0.00085209       0.00606369      -0.00137863
Ti       0.03656978       6.10252514       4.06089869       0.00057586       0.00838526      -0.00853451
Ti       2.34114096       2.76207732       4.58250462       0.00258335      -0.01089781       0.00262910
Ti       0.00600633       1.12246426       4.96963429       0.00162763       0.00319229       0.00105662
Ti       2.34930302       5.55933782       5.58535024       0.00220311      -0.00109772       0.00285552
Ti       0.01101857       3.87409834       5.92505826       0.00260978      -0.01456057       0.00417156
Ti       2.34129281       0.56559987       6.55744363       0.00181094       0.01552398      -0.00387610
Ti       0.02482227       6.65163127       6.85890921       0.00139765       0.00146265       0.00270130
Ti       2.33787728       3.31076065       7.51174689       0.00167162      -0.00793959      -0.00260015
Ti       0.02039685       1.67715841       7.89617222       0.00150229       0.00668192      -0.00110981
Ti       2.36624214       6.10526687       8.38077710       0.00116121      -0.00353682       0.00281843
Ti       4.64745287       4.45045481       8.83366380       0.00058716      -0.00974307      -0.00084354
Ti       2.35726514       1.08229551       9.51193026       0.00139913       0.00517310      -0.00296851
Ti       0.03848891       7.18479442       9.61849967       0.00257337       0.00834515       0.00284603
Ti       2.24502548       3.81706428      10.39251012      -0.00358650      -0.01055512      -0.00039811
Ti       0.10410632       2.22798538      10.81714629      -0.00116366      -0.00485944       0.00513343
Ti       2.33301413       6.55183241      11.09838556      -0.00197285       0.01263658      -0.00183245
Ti       4.14804804       4.79541533      11.79268060       0.00108198      -0.01494160      -0.00410857
Ti       2.70366958       1.73521559      12.52140858      -0.00021234       0.01191699       0.00122123
Zr       0.37456742       7.66763638      12.52154731      -0.00039982       0.00803659       0.00203078
Ti       1.26067135       4.79585926      13.25097878       0.00112292      -0.01719158       0.00839356
Ti       3.07434822       6.55200049      13.94598906       0.00169598       0.01159302       0.00271088
Ti       0.64770216       2.22826827      14.22646474       0.00146382      -0.00361693      -0.00491238
Ti       3.16397314       3.81718810      14.65085096       0.00156394      -0.00975794       0.00026386
Ti       0.71337434       7.18530299      15.42531978      -0.00286464       0.00889663      -0.00295974
Ti       3.05168904       1.08265541      15.53207664      -0.00210300       0.00530949       0.00253368
Ti       0.76136613       4.45115151      16.20987825      -0.00049930      -0.00894651      -0.00230189
Ti       3.04230743       6.10585307      16.66303478      -0.00148338      -0.00363864      -0.00420350
Ti       0.73164053       1.67779642      17.14716550      -0.00179774       0.00578764      -0.00010384
Ti       3.07083651       3.31138683      17.53171147      -0.00158522      -0.00780933       0.00004094
Ti       0.72690588       6.65193776      18.18469200      -0.00121554       0.00168020      -0.00399251
Ti       3.06736221       0.56586806      18.48621735      -0.00171685       0.01583096       0.00221502
Ti       0.74074677       3.87499348      19.11836421      -0.00259325      -0.01507194      -0.00430653
Ti       3.05935625       5.55989539      19.45832096      -0.00253325      -0.00082263      -0.00211425
Ti       0.74606988       1.12254089      20.07366892      -0.00175635       0.00318953      -0.00046310
Ti       3.06747055       2.76269041      20.46073772      -0.00252347      -0.01143460      -0.00128236
Ti       0.71563075       6.10281246      20.98269282      -0.00054438       0.00860958       0.00988409
Ti       3.09627743       0.00751418      21.40603144      -0.00051954       0.00518309       0.00221823
Ti       0.72837820       3.34096623      22.04375348      -0.00435764      -0.00184628       0.00348628
Ti       3.05104365       5.00451029      22.23479297      -0.00137225       0.00177836       0.01557128
Ti       0.84293975       0.62553003      22.97882775      -0.00270304      -0.00522149       0.00641559
Ti       2.95265096       2.26953786      23.43627252       0.00226368      -0.00027763       0.00448354
Ti       0.78185782       5.59991448      23.68539636       0.00390271       0.00357257       0.01468860
Ti       3.59179247       7.38857403      24.33681682      -0.01113444      -0.00745767       0.01452637
Ti       0.37689162       2.80291063      25.04414976       0.00007670       0.01171475       0.00005859
Ti       2.70522880       4.56407622      25.04404072       0.00013672       0.00982718      -0.00061713
