52
Lattice="4.6568 0.0 0.0 0.0 7.770572 0.0 0.0 0.0 25.044546" Properties=species:S:1:pos:R:3:forces:R:3 job_name=CSL7-Zn-Zn-32-d-3.65 GB_type=CSL7 element=Zn system=Zn-32-d-3.65 distance=3.65 energy=-394.10757717 stress_kbar_3x3="_JSON [[-15.372903, 0.52739636, 0.60031338], [0.52739635, -27.57883982, -0.32698169], [0.60031339, -0.32698167, -18.99766219]]" pbc="T T T"
Ti       1.81216946       7.39410358       0.70251731       0.00044116       0.01069261      -0.00039059
Ti       4.63149714       5.60009960       1.36302747       0.00206929       0.00269609       0.00091787
Ti       2.45689091       2.27299937       1.60969753       0.00325103       0.00437811      -0.00357840
Ti       4.56614106       0.62465035       2.07631420       0.00164191       0.00855117      -0.00296065
Ti       2.35860282       5.00731058       2.82086983       0.00321483      -0.00095883      -0.00135090
Ti       0.02374155       3.33624957       3.00974915       0.00199103      -0.00180529      -0.00218184
Ti       2.30766421       0.01100219       3.64551909       0.00269792       0.00613412      -0.00379888
Ti       0.02947340       6.10344246       4.08756592       0.00348263       0.00151834      -0.00275250
Ti       2.33941828       2.76433216       4.59932807       0.00311641      -0.00018774      -0.00354129
Ti       0.00065363       1.11661823       4.99201115       0.00314859       0.00321207      -0.00170262
Ti       2.34773491       5.56847674       5.61324296       0.00391730       0.00059695      -0.00248705
Ti       0.00819953       3.87346674       5.94827030       0.00320380      -0.00293432       0.00074084
Ti       2.33324573       0.56699229       6.57662428       0.00335059       0.00515752       0.00058234
Ti       0.01733017       6.63888527       6.91054274       0.00358836       0.00041804       0.00008160
Ti       2.33260520       3.32542183       7.53084979       0.00273253       0.00089424       0.00269645
Ti       0.01056151       1.67559279       7.92262008       0.00274171       0.00502264       0.00162103
Ti       2.35618471       6.10601326       8.43408930       0.00188275      -0.00073275       0.00410835
Ti       4.63336626       4.42460690       8.88420324      -0.00034014      -0.00378911       0.00382002
Ti       2.34662488       1.12241379       9.50478448       0.00045561       0.01154194       0.00001589
Ti       0.03645179       7.20282577       9.69752098       0.00138184       0.00666238      -0.00143745
Ti       2.22526959       3.82797870      10.45798364      -0.00621996      -0.00377354      -0.00176815
Ti       0.12084862       2.15813869      10.91718980      -0.00138548      -0.00020260       0.00012350
Ti       2.32616665       6.63768658      11.14914053       0.00432201       0.00397286      -0.00186969
Ti       4.13679132       4.79947780      11.83831217      -0.01126336      -0.00686329      -0.00149003
Ti       2.68748614       1.70481305      12.55178494      -0.00344266       0.00977181       0.00413815
Ti       0.39522967       7.64199918      12.53310728      -0.00424480       0.00533182       0.00516251
Ti       1.23328913       4.85924849      13.33427995       0.00444015      -0.00977115       0.01432955
Ti       3.07313715       6.67914066      13.82070258      -0.01011554       0.00166791       0.00062545
Ti       0.60001379       2.16377796      14.18193952      -0.00319135      -0.00838319       0.00102895
Ti       3.15721293       3.80672023      14.68712203       0.00174318      -0.00803459       0.01011877
Ti       0.74685697       7.12886215      15.31564779      -0.00926262      -0.01181091       0.00489387
Ti       3.07202130       1.03269488      15.54539217      -0.00653938      -0.00879099       0.00407637
Zn       0.77460971       4.39711882      16.19064741       0.00204872      -0.01110875       0.00871590
Ti       3.06122243       6.01719893      16.59830283      -0.00072125      -0.01218107       0.00336562
Ti       0.73627200       1.67419609      17.08167102      -0.00457976      -0.01240801       0.00241126
Ti       3.09016355       3.31042383      17.48951156      -0.00024745      -0.01239369       0.00939179
Ti       0.74431160       6.60624388      18.11110420      -0.00084230      -0.00587844       0.00088963
Ti       3.07036834       0.55216949      18.44199748      -0.00112120      -0.01054674       0.00071127
Ti       0.75015985       3.90921281      19.07690992      -0.00050599      -0.00290168       0.00407313
Ti       3.07439754       5.60623904      19.44628106      -0.00149447      -0.00540689      -0.00280316
Ti       0.74634758       1.11907791      20.02271471       0.00002851       0.00499444      -0.00710631
Ti       3.06954809       2.77807453      20.41689256      -0.00011632      -0.00221650      -0.00143845
Ti       0.73118505       6.12856612      20.95201236      -0.00118815       0.00355102      -0.00768185
Ti       3.11173865       0.04026560      21.40429751       0.00130319       0.00374306      -0.00790966
Ti       0.72613573       3.33846882      22.01003041       0.00084423       0.00198679      -0.00669096
Ti       3.05280075       5.01593951      22.21969743      -0.00127708       0.00244421      -0.00935752
Ti       0.84716422       0.62564351      22.94830142      -0.00005035       0.01050893      -0.00527174
Ti       2.94985551       2.27807508      23.42360499       0.00118858       0.00801803      -0.00110336
Ti       0.77700165       5.59265060      23.67363144      -0.00207136       0.00473031      -0.00530255
Ti       3.59502960       7.39696272      24.33079037       0.00177883       0.01243850      -0.00333176
Ti       0.38019848       2.79958773      25.03682061       0.00244245       0.00156058       0.00117630
Ti       2.70950021       4.56848579      25.04045277       0.00177185       0.00088355      -0.00050905
