52
Lattice="4.6568 0.0 0.0 0.0 7.770572 0.0 0.0 0.0 25.044546" Properties=species:S:1:pos:R:3:forces:R:3 job_name=CSL7-V-V-32-d-3.65 GB_type=CSL7 element=V system=V-32-d-3.65 distance=3.65 energy=-401.30725919 stress_kbar_3x3="_JSON [[-19.28013678, -0.24082859, -0.68582441], [-0.24082859, -26.5291222, 0.80481317], [-0.6858244, 0.80481318, -21.99012292]]" pbc="T T T"
Ti       1.81532215       7.39428566       0.70237230       0.01029350      -0.00079926      -0.01288901
Ti       4.62988889       5.60021634       1.36344455      -0.00558310      -0.00577254      -0.00809775
Ti       2.45625279       2.27289013       1.60925995      -0.00002998       0.00426047       0.00099610
Ti       4.56740696       0.62373297       2.07517536      -0.00465481       0.00525242       0.00497885
Ti       2.35608253       5.00870835       2.82504042       0.00634799       0.00332324      -0.00209241
Ti       0.02238742       3.33573144       3.00963695       0.00050203       0.00204559      -0.00047030
Ti       2.30977686       0.01174398       3.64675107       0.00202612       0.00071916      -0.00063585
Ti       0.02958822       6.10334401       4.08860765       0.00108312       0.00149588       0.00527606
Ti       2.33871929       2.76525663       4.59998199       0.00367654      -0.00082388       0.00297051
Ti       0.00199573       1.11655285       4.99295526       0.00156920      -0.00102294       0.00234998
Ti       2.34591529       5.56932064       5.61788445       0.00405835       0.00283231       0.00498619
Ti       0.00759511       3.87285406       5.94947580       0.00346408       0.00010733       0.00367035
Ti       2.33399905       0.56677320       6.57996617       0.00334857      -0.00193422       0.00245196
Ti       0.01781982       6.64095515       6.91619656       0.00340241      -0.00150477       0.00481761
Ti       2.33258570       3.32393123       7.53843517       0.00229587      -0.00300438       0.00297364
Ti       0.01147926       1.67266721       7.92638606       0.00408139       0.00018753       0.00314446
Ti       2.35637409       6.10841847       8.44493601       0.00264925      -0.00193142       0.00486210
Ti       4.63981966       4.42697226       8.88458938       0.00079666       0.00046829       0.00844170
Ti       2.35087647       1.10843320       9.51656897       0.00604888      -0.00069454       0.00247069
Ti       0.03266233       7.19984661       9.71198710       0.00087384      -0.00161148       0.00073475
Ti       2.23493830       3.82260421      10.47299792       0.00345723      -0.00572522       0.01006258
Ti       0.12506241       2.16142588      10.91181526       0.00384261      -0.01203669       0.00201686
Ti       2.30828216       6.61480708      11.17489049       0.00762236      -0.01387133       0.01171588
Ti       4.17057588       4.81055071      11.82728749      -0.00154488       0.00007044       0.00327305
Ti       2.70789399       1.65259297      12.53550178      -0.00136280      -0.00865564       0.00486314
Ti       0.38409361       7.64319169      12.54891300       0.00300641      -0.00816837       0.01078257
Ti       1.25463192       4.82311647      13.31852296       0.01229503       0.00065237       0.00510045
Ti       3.09853870       6.58678249      13.88823863       0.00382130      -0.01427969      -0.00510124
Ti       0.62762146       2.17565093      14.15985408       0.00639912      -0.01204834      -0.00577853
Ti       3.23844751       3.81578979      14.66026686      -0.00758147      -0.00251786      -0.01037729
Ti       0.69422187       7.15733784      15.36991513       0.00378240       0.00236598      -0.00104303
Ti       3.03900087       1.06617693      15.51372818      -0.00565537      -0.00668408      -0.00196602
V        0.79269590       4.45369023      16.18942878       0.00047486       0.01105822      -0.00488351
Ti       3.04249847       6.03573913      16.60929138      -0.00401903       0.00051530       0.00389774
Ti       0.72666794       1.72301120      17.08170301      -0.00562260       0.00431298      -0.00510769
Ti       3.08033273       3.34423458      17.46436018      -0.00284343      -0.00417690       0.00694067
Ti       0.71973849       6.63087773      18.11518377      -0.00717446       0.00608365       0.00815363
Ti       3.06814662       0.56674772      18.43296228      -0.00754644       0.00141545      -0.00278892
Ti       0.74283438       3.89711951      19.05294626      -0.00311831      -0.00009311      -0.00199345
Ti       3.05093651       5.58635106      19.44709638      -0.00720334       0.00773927      -0.00928180
Ti       0.74651215       1.12126315      20.01766083      -0.00467428       0.00315249      -0.00544025
Ti       3.06880765       2.76773265      20.41267717      -0.00454907       0.00271724      -0.00234603
Ti       0.71964985       6.11527239      20.94591791      -0.00498435       0.00170719      -0.00283023
Ti       3.09656359       0.02681916      21.37739644      -0.00504238      -0.00143334      -0.00835302
Ti       0.73177260       3.33883234      21.99901657      -0.00186492       0.01343608      -0.00712437
Ti       3.05416999       5.01163043      22.21093102      -0.00859362       0.00621950       0.00038778
Ti       0.84276337       0.62503029      22.94937053       0.00331366       0.00866036      -0.01437148
Ti       2.94893037       2.28112149      23.41751982       0.00068528       0.00211603      -0.00795721
Ti       0.77817212       5.59118969      23.67002870       0.00147930      -0.00239296       0.00426263
Ti       3.59342960       7.39675799      24.32363841      -0.00886369       0.00017621       0.00103738
Ti       0.37389522       2.79813359      25.03578966      -0.00189828       0.00065565      -0.00330620
Ti       2.70251705       4.56642690      25.04312023      -0.00228673       0.01743635      -0.00338372
