52
Lattice="4.6568 0.0 0.0 0.0 7.770572 0.0 0.0 0.0 25.044546" Properties=species:S:1:pos:R:3 job_name=CSL7-Zn-Zn-37-d-5.94 GB_type=CSL7 element=Zn system=Zn-37-d-5.94 distance=5.94 energy=-394.10601146 pbc="T T T"
Ti       1.81974842       7.38833331       0.68838788
Ti       4.63728297       5.59220705       1.35605276
Ti       2.45982487       2.27030724       1.60571250
Ti       4.56833527       0.61580502       2.07008553
Ti       2.36258775       5.00407475       2.81916166
Ti       0.02599096       3.32972493       3.00528787
Ti       2.30996418       0.00848538       3.64508870
Ti       0.03135065       6.09881125       4.08318943
Ti       2.34483373       2.76164764       4.59428367
Ti       0.00697357       1.11473077       4.99087092
Ti       2.34956987       5.56506681       5.61089490
Ti       0.01147489       3.86994646       5.94519384
Ti       2.34001429       0.56357151       6.57615154
Ti       0.02154072       6.63886430       6.90539390
Ti       2.33337604       3.31814392       7.52739163
Ti       0.01650825       1.67390927       7.93010072
Ti       2.36184749       6.10222476       8.43739360
Ti       4.63519923       4.42436483       8.87762707
Ti       2.35991758       1.09571590       9.51298859
Ti       0.03085662       7.19865928       9.69909456
Ti       2.23860751       3.80968336      10.44070508
Ti       0.13118534       2.15070607      10.92427208
Ti       2.30352955       6.59965712      11.16773301
Ti       4.13603080       4.80077732      11.84115251
Ti       2.69873218       1.63666099      12.54207885
Ti       0.35997005       7.62723628      12.51160120
Ti       1.26232843       4.77974475      13.23459030
Ti       3.09924923       6.59265829      13.88426549
Ti       0.61622818       2.13668325      14.16770888
Ti       3.15323647       3.79969007      14.65755876
Ti       0.73060200       7.15820839      15.30062197
Ti       3.05740588       1.05370498      15.56760181
Ti       0.76140612       4.43286845      16.21013970
Ti       3.04771680       6.14328008      16.63261129
Ti       0.73349771       1.65815458      17.13820624
Ti       3.07914545       3.32881888      17.56340147
Ti       0.73250654       6.73162938      18.12639520
Zn       3.05997577       0.60988975      18.46968504
Ti       0.73624231       3.97694332      19.10352851
Ti       3.06632492       5.66951423      19.44244699
Ti       0.72118790       1.14591238      20.00810067
Ti       3.06293131       2.81090252      20.39024592
Ti       0.71936438       6.10977546      20.99311983
Ti       3.10599008       0.03039752      21.36251856
Ti       0.73621506       3.31238226      22.00549046
Ti       3.05117623       5.00760960      22.20421971
Ti       0.85788696       0.61371157      22.93308886
Ti       2.96098369       2.28107894      23.41041717
Ti       0.78232355       5.57262570      23.68029641
Ti       3.59695696       7.38664398      24.31049567
Ti       0.37937533       2.77575642      25.03431416
Ti       2.71538089       4.55274241      25.03865923
