52
Lattice="4.6568 0.0 0.0 0.0 7.770572 0.0 0.0 0.0 25.044546" Properties=species:S:1:pos:R:3:forces:R:3 job_name=CSL7-Zr-Zr-33-d-4.09 GB_type=CSL7 element=Zr system=Zr-33-d-4.09 distance=4.09 energy=-401.18071121 stress_kbar_3x3="_JSON [[-6.42968091, 0.03660977, 0.06721452], [0.03660982, -13.99525549, -0.52055931], [0.06721449, -0.52055928, -9.48917245]]" pbc="T T T"
Ti       1.81614019       7.39345714       0.72468332       0.00091234       0.00155075      -0.00578177
Ti       4.62714144       5.60419366       1.37998846       0.00079990       0.00326135      -0.00328748
Ti       2.45809724       2.26753575       1.62199990       0.00111400       0.00141027      -0.00464247
Ti       4.56664228       0.62894990       2.08558785       0.00328119      -0.00152599      -0.00470003
Ti       2.35843783       5.00616678       2.83415912      -0.00104192       0.00195404      -0.00149310
Ti       0.02662705       3.34093295       3.01308702      -0.00115970      -0.00380585      -0.00105895
Ti       2.30847107       0.00727940       3.64993700       0.00180195       0.00660768      -0.00203546
Ti       0.03203580       6.10774827       4.08942543      -0.00074555      -0.00115449       0.00075280
Ti       2.34196691       2.76206185       4.59797296      -0.00007453       0.00103046       0.00004145
Ti       0.00346035       1.12127609       4.98551726      -0.00135943       0.00122791       0.00351170
Ti       2.34724536       5.56436793       5.61117480      -0.00068151       0.00200996      -0.00195976
Ti       0.00780653       3.87704053       5.93924466       0.00055472      -0.00481480       0.00206058
Ti       2.33735273       0.56469768       6.56720811      -0.00105251       0.00364674       0.00255271
Ti       0.01819102       6.64680147       6.89529415      -0.00019478      -0.00252172       0.00165399
Ti       2.33218252       3.32170194       7.52111108      -0.00168978      -0.00060843       0.00094042
Ti       0.01524603       1.68198786       7.90610492      -0.00231163      -0.00238191       0.00309300
Ti       2.35938910       6.10443191       8.41614085       0.00118772      -0.00125571      -0.00114847
Ti       4.63286310       4.43543335       8.85660489       0.00059215      -0.00188157       0.00476684
Ti       2.35336598       1.10656012       9.49316142       0.00132417       0.00155417       0.00004991
Ti       0.03022015       7.21013893       9.66828124       0.00011193       0.00063916      -0.00523873
Ti       2.23128648       3.81525912      10.43190908       0.00239562      -0.00300872       0.00449541
Ti       0.12429335       2.18137996      10.87637124       0.00060093      -0.00042171       0.00444458
Ti       2.29914668       6.60832037      11.11934004       0.00500459      -0.00303299      -0.00301750
Ti       4.15696591       4.83285755      11.76987891       0.00024779       0.00321403       0.00344855
Ti       2.70797259       1.64181512      12.47594965       0.00017905      -0.00007104      -0.00034621
Ti       0.38458443       7.65782340      12.47064638      -0.00115069      -0.00015439       0.00361805
Ti       1.24987629       4.83579098      13.22587228      -0.00315637       0.00025850       0.00009183
Ti       3.09798362       6.65020065      13.80664318      -0.00312437       0.00036594       0.00755805
Ti       0.62914709       2.16296420      14.08442318      -0.00440295       0.00124871      -0.00202996
Ti       3.18119312       3.80560742      14.52293188       0.00147945       0.00961759      -0.00134298
Ti       0.72184677       7.23020035      15.27645418       0.00478940      -0.00470779      -0.00154902
Ti       3.05361044       1.15489209      15.49645389       0.00317519       0.00158176      -0.00205459
Ti       0.76179949       4.30185444      16.14357728      -0.00652435      -0.00336192      -0.00323359
Zr       3.04469735       6.09623164      16.61787608       0.00169702      -0.00143441       0.00461968
Ti       0.73729306       1.61408718      17.13628319       0.00118987      -0.00032456      -0.00364891
Ti       3.06093925       3.25928294      17.53537787      -0.00030205      -0.00808624      -0.00560453
Ti       0.73092783       6.65319214      18.23389259       0.00036145       0.00245880       0.00707909
Ti       3.07979445       0.58891693      18.53749055       0.00205710       0.00552967       0.00685271
Ti       0.73624291       3.86920159      19.08806163       0.00080859      -0.00160098      -0.00070314
Ti       3.06286910       5.55424326      19.52024245       0.00076390      -0.00108066       0.00947791
Ti       0.75354270       1.13461277      20.07739367       0.00073484      -0.00193028       0.00251681
Ti       3.07090062       2.77032964      20.48229217      -0.00073174       0.00257027      -0.00413280
Ti       0.72438990       6.09987732      21.00216900      -0.00157701       0.00097558      -0.00595113
Ti       3.10063387       0.01746265      21.42590089      -0.00184854       0.00143731      -0.00166000
Ti       0.73643878       3.34932270      22.04552994      -0.00103847       0.00248849       0.00163358
Ti       3.05978393       5.01460347      22.27619665      -0.00205577      -0.00160387       0.00002749
Ti       0.84564999       0.63280942      22.98894779      -0.00052850       0.00109564      -0.00387500
Ti       2.95543536       2.27756401      23.45150838      -0.00263061      -0.00029730      -0.00260190
Ti       0.78167801       5.59754554      23.70890212       0.00363108      -0.00099886       0.00341942
Ti       3.59727645       7.40206980      24.35580366      -0.00032725      -0.00384275      -0.00195008
Ti       0.37378163       2.80210760       0.01653349       0.00052020       0.00122213      -0.00537258
Ti       2.69602678       4.56545288       0.03099263      -0.00160612      -0.00304798       0.00171359
