52
Lattice="4.6568 0.0 0.0 0.0 7.770572 0.0 0.0 0.0 25.044546" Properties=species:S:1:pos:R:3:forces:R:3 job_name=CSL7-Zr-Zr-36-d-5.61 GB_type=CSL7 element=Zr system=Zr-36-d-5.61 distance=5.61 energy=-401.2130443 stress_kbar_3x3="_JSON [[-6.01196332, 0.06904255, 0.03923815], [0.06904255, -13.47820519, -0.23316361], [0.03923817, -0.2331636, -10.0372653]]" pbc="T T T"
Ti       1.81991315       7.39430097       0.72727523       0.01083853      -0.00236278      -0.00519960
Ti       4.62608365       5.60348204       1.38574751      -0.00556301      -0.00208391       0.00361443
Ti       2.45859554       2.26872492       1.62782008       0.00057418      -0.00082013       0.00826312
Ti       4.56585966       0.62487254       2.08348959      -0.00287305       0.00400813       0.00888236
Ti       2.35549144       5.00680235       2.83622262       0.00459011       0.00096352      -0.00110432
Ti       0.02582739       3.33806056       3.01835252       0.00223762       0.00330644       0.00140755
Ti       2.30866662       0.00917458       3.65310756       0.00208640      -0.00205152       0.00284025
Ti       0.03057008       6.10646038       4.09246898       0.00310989       0.00251444      -0.00123111
Ti       2.34050893       2.76215149       4.60209249       0.00224929      -0.00365056       0.00478737
Ti       0.00367287       1.12011964       4.99112971       0.00287847       0.00194712      -0.00142106
Ti       2.34597331       5.56541528       5.61331598       0.00322206      -0.00248401      -0.00404730
Ti       0.00779233       3.87556023       5.94582538       0.00312668      -0.00481805       0.00124524
Ti       2.33592238       0.56502627       6.57316523       0.00324632       0.00447694      -0.00126892
Ti       0.01796787       6.64431605       6.89882615       0.00292984       0.00420809       0.00511282
Ti       2.33033739       3.31933366       7.52727658       0.00288097      -0.00452266       0.00133950
Ti       0.01198953       1.67900700       7.91604078       0.00195051      -0.00188278      -0.00470117
Ti       2.35849175       6.10171845       8.41986157       0.00248119      -0.00372797       0.00113871
Ti       4.63397366       4.43221025       8.86731390       0.00228001      -0.00080656      -0.00399219
Ti       2.35477789       1.09877555       9.50256649       0.00139310      -0.00624492      -0.00466441
Ti       0.02879644       7.20081915       9.67374373       0.00335829      -0.00333248      -0.00317016
Ti       2.23834778       3.80903344      10.43085076      -0.00083113      -0.00172109      -0.00898615
Ti       0.12376035       2.17213512      10.88893182       0.00211007       0.00155676      -0.01116548
Ti       2.30005237       6.59921983      11.13015731      -0.00151285      -0.00154088      -0.01162632
Ti       4.14081150       4.81264129      11.79669250       0.00617288      -0.00425823      -0.00099758
Ti       2.69836081       1.63471800      12.49562484      -0.00384675      -0.00205024      -0.00057945
Ti       0.36401539       7.64561454      12.46864338       0.00369990      -0.00336530      -0.01065214
Ti       1.27575930       4.81714811      13.19683454      -0.00001971       0.00013078       0.00158781
Ti       3.11577972       6.62970707      13.85356365      -0.00517144      -0.00579398       0.00066419
Ti       0.62239712       2.15931898      14.08958024       0.00330957       0.00139437      -0.00632105
Ti       3.17782542       3.80336513      14.56907218      -0.00813495       0.01290388      -0.00424359
Ti       0.73748242       7.22807815      15.25802420      -0.00238845      -0.00521496       0.01129193
Ti       3.06717972       1.11357012      15.55188662      -0.00349080       0.00009849       0.00100588
Ti       0.77371462       4.40406323      16.09654931       0.00242090       0.01031147       0.00424602
Ti       3.04563898       6.09181741      16.51440486      -0.00118420       0.00104757       0.00390813
Ti       0.74499411       1.73231441      17.09249108      -0.00277992      -0.00150724       0.00278778
Ti       3.07130002       3.37094451      17.51607510      -0.00254640       0.00305684      -0.00101231
Zr       0.73253712       6.64061712      18.13133753      -0.00370399      -0.00372159      -0.01608127
Ti       3.06984977       0.66778550      18.49040043      -0.00173600      -0.00116282      -0.00131324
Ti       0.73853767       3.82008652      19.13653560      -0.00300499       0.00416992      -0.00275220
Ti       3.06160592       5.52268619      19.50281132       0.00040623       0.00284488      -0.00155443
Ti       0.74792386       1.14450657      20.10299030      -0.00258578      -0.00136773      -0.00090457
Ti       3.06429826       2.76234786      20.48835718      -0.00426116       0.00364406       0.00488465
Ti       0.72007825       6.07624687      21.03006851      -0.00276823       0.00180003       0.00244444
Ti       3.09630451       0.00191395      21.39607697      -0.00063923       0.00121936       0.00346679
Ti       0.72304991       3.33469859      22.06946889      -0.00170706       0.00302406       0.00067783
Ti       3.05156563       5.00419700      22.27094780      -0.00228008      -0.00104896      -0.00143382
Ti       0.84844746       0.61730665      22.99425446      -0.00513615      -0.00630054       0.00809451
Ti       2.95064322       2.26269285      23.45489030      -0.00094332      -0.00171616       0.00349748
Ti       0.78266730       5.59384931      23.71854296      -0.00613924       0.00271212       0.00012198
Ti       3.58870707       7.38884990      24.35074010      -0.00385231      -0.00047167       0.00810653
Ti       0.37788835       2.79560257       0.01924660      -0.00106501       0.00028720       0.00376960
Ti       2.70815510       4.55723450       0.02683689       0.00661217       0.00840323       0.01123696
