52
Lattice="4.6568 0.0 0.0 0.0 7.770572 0.0 0.0 0.0 25.044546" Properties=species:S:1:pos:R:3:forces:R:3 job_name=CSL7-Cu-Cu-27-d-1.36 GB_type=CSL7 element=Cu system=Cu-27-d-1.36 distance=1.36 energy=-396.65501736 stress_kbar_3x3="_JSON [[-18.71877418, -1.46521156, 0.41345976], [-1.46521154, -27.89445978, -3.71287107], [0.41345977, -3.71287104, -27.36535727]]" pbc="T T T"
Ti       1.81950941       7.39581158       0.70316003       0.01716325       0.00226359      -0.00659235
Ti       4.63943157       5.59285208       1.36225235       0.00180177      -0.00518621       0.00442184
Ti       2.46031345       2.28278998       1.62087761       0.00299304      -0.00216717       0.00191515
Ti       4.56840016       0.62028146       2.09525393      -0.00331316       0.00414262       0.00066890
Ti       2.36076870       5.01746392       2.83685192       0.00118983       0.00343955       0.00018658
Ti       0.02568118       3.33998196       3.03121498      -0.00022971      -0.00511420      -0.00404293
Ti       2.30922776       0.01905429       3.66668735       0.00428419       0.00471741       0.00080802
Ti       0.02822160       6.10860760       4.11041991      -0.00129830       0.00303703       0.00399274
Ti       2.34150601       2.77428559       4.61899185      -0.00058570       0.00205499       0.00440501
Ti       0.00263859       1.12419284       5.01989740       0.00045816       0.00470090      -0.00230578
Ti       2.34686254       5.57670123       5.64507935       0.00135204       0.00241221      -0.00369008
Ti       0.00422578       3.87569106       5.97740298      -0.00018895       0.00019250      -0.00075204
Ti       2.33766353       0.57635243       6.60842130       0.00118885       0.01043630       0.00013372
Ti       0.01323567       6.65512749       6.94585978       0.00185644       0.00484577       0.00052704
Ti       2.32441396       3.33148511       7.57160610       0.00142683      -0.00126845      -0.00212518
Ti       0.00838552       1.67640225       7.97395303       0.00030318       0.00917713      -0.00325817
Ti       2.33812379       6.13084804       8.48094247      -0.00428048       0.00550128      -0.00619653
Ti       4.63559569       4.43567664       8.90508430       0.00310609       0.00436199       0.00312437
Ti       2.33060701       1.11072492       9.57667252      -0.00176683       0.00622750       0.00824252
Ti       4.64929560       7.21020810       9.79434218       0.00727602       0.00330530       0.00541225
Ti       2.24614987       3.85897670      10.50699251       0.00267797       0.00144064       0.00137968
Ti       0.12930106       2.20698834      10.97278908       0.00700419       0.00454887       0.00067755
Ti       2.30416096       6.60094837      11.20758205       0.00317158       0.01306285      -0.00268432
Ti       4.25776137       4.91396312      11.81645274       0.00637610       0.00319046      -0.00312767
Ti       2.71145642       1.67270067      12.56605663       0.00204089      -0.00488917      -0.00211569
Ti       0.41636817       7.69942968      12.58395517      -0.00641916       0.01584399       0.00445415
Ti       1.28121371       4.78965466      13.26766253      -0.00475112      -0.00347201      -0.00440512
Cu       2.99423665       6.73010085      13.82298799       0.00036547       0.00062096      -0.00171954
Ti       0.59508170       2.22297487      14.13871883       0.00165680      -0.00529338      -0.00061556
Ti       3.25115760       3.99746556      14.54414730       0.00078946      -0.00456065       0.00211857
Ti       0.71747936       7.10931345      15.23664617      -0.00341497      -0.00355685      -0.00125898
Ti       2.99706853       1.14345285      15.42800022      -0.00087888       0.00983456       0.00136515
Ti       0.79347699       4.35110977      16.21636800      -0.00546696      -0.00177792      -0.00265995
Ti       3.06482250       6.06352026      16.53943786       0.00120068      -0.00186443       0.00588410
Ti       0.71036413       1.59506654      17.10210582       0.00019437      -0.00386099      -0.00147025
Ti       3.07232100       3.26890169      17.46868087      -0.00020707      -0.00913791      -0.00317048
Ti       0.74269190       6.60382657      18.07269046      -0.00204847      -0.00192375       0.00016670
Ti       3.06433797       0.52134942      18.41779093      -0.00296726      -0.00112082      -0.00479963
Ti       0.74223812       3.81440271      19.08180281      -0.00073893      -0.00607091      -0.00041775
Ti       3.05904502       5.53030968      19.36311355      -0.00388590      -0.00566818       0.00046824
Ti       0.74872153       1.07636571      20.01073974      -0.00126475      -0.00502456       0.00277080
Ti       3.07412465       2.73123890      20.40887922      -0.00167659      -0.00771029       0.00008135
Ti       0.72183905       6.07509586      20.90943709       0.00145383      -0.00019731      -0.00064204
Ti       3.10234065       7.75632881      21.36333161      -0.00286097      -0.00463837      -0.00068250
Ti       0.73305210       3.31149675      21.99875401      -0.00032471      -0.01092783       0.00299280
Ti       3.05176768       4.98621273      22.18088007      -0.00009359       0.00131979       0.00231705
Ti       0.84346821       0.60847330      22.93267888       0.00016373      -0.00543035       0.00159814
Ti       2.95207792       2.26815171      23.41189687      -0.00382522      -0.00492102       0.00289094
Ti       0.77484068       5.58455669      23.65925320      -0.00162997      -0.00449723      -0.00685326
Ti       3.59714713       7.38815855      24.32926215      -0.01790033      -0.00160007       0.00176872
Ti       0.37815914       2.79033359      25.03960708       0.00110552       0.00316618       0.00090739
Ti       2.70531165       4.57580768      25.03394952      -0.00058230      -0.01196433      -0.00009367
