52
Lattice="4.6568 0.0 0.0 0.0 7.770572 0.0 0.0 0.0 25.044546" Properties=species:S:1:pos:R:3:forces:R:3 job_name=CSL7-Zr-Zr-28-d-1.62 GB_type=CSL7 element=Zr system=Zr-28-d-1.62 distance=1.62 energy=-401.42577201 stress_kbar_3x3="_JSON [[-7.42414051, 1.33189035, -0.19796853], [1.33189037, -14.53840376, 0.44544741], [-0.19796854, 0.44544743, -8.21670924]]" pbc="T T T"
Ti       1.82117214       7.38782261       0.71290991      -0.00146845       0.00260418      -0.00045256
Ti       4.62578904       5.60749038       1.36588390       0.00196663       0.00236203       0.00730251
Ti       2.45868315       2.26859974       1.60738347       0.00125713      -0.00017677      -0.00535607
Ti       4.56871138       0.63152276       2.05887487       0.00424446       0.00672873      -0.00627308
Ti       2.35845134       5.00055100       2.81198742       0.00059036      -0.00578553       0.00456941
Ti       0.02873255       3.34175411       2.99752920       0.00490479      -0.00226732      -0.00362552
Ti       2.31229190       0.00389497       3.62372902       0.00251193      -0.00311184      -0.00193061
Ti       0.03637650       6.10606531       4.06635479       0.00308262      -0.00644248       0.00151617
Ti       2.34463825       2.75743642       4.58050406       0.00244554       0.00232576      -0.00108796
Ti       0.00753907       1.11554352       4.95718154       0.00297259       0.00155298      -0.00108528
Ti       2.35140397       5.55817388       5.58555075       0.00229128      -0.00491029      -0.00061416
Ti       0.01554902       3.87296645       5.92089630       0.00354508      -0.00707615      -0.00436192
Ti       2.34260862       0.55725587       6.53435760       0.00258109       0.00120985      -0.00266186
Ti       0.02559759       6.64102972       6.87120054       0.00200963      -0.00392338      -0.00292961
Ti       2.34048931       3.31104751       7.50634061       0.00189820      -0.00409339      -0.00544849
Ti       0.01903371       1.66484361       7.86698627       0.00295132      -0.00236738      -0.00518406
Ti       2.36468036       6.09404010       8.38840751       0.00355535      -0.00350122      -0.00379174
Ti       4.64553653       4.43030993       8.84282285       0.00157891      -0.00178012      -0.00372351
Ti       2.35759447       1.08491676       9.44956181       0.00191526       0.00119321      -0.00361134
Ti       0.03345769       7.17760285       9.64467164      -0.00039235      -0.00187704      -0.00291721
Ti       2.24803497       3.80131545      10.41660254       0.00505681       0.00128591       0.00461970
Ti       0.09998159       2.15687725      10.78513763       0.00121648       0.00190359       0.00237734
Ti       2.33130716       6.59146304      11.11244884       0.00663069      -0.00356185       0.00359204
Ti       4.14504082       4.79872942      11.81627979       0.00619199      -0.00361617       0.00875181
Ti       2.70624040       1.63570213      12.37799585       0.00232448      -0.00031602       0.00037447
Ti       0.36616098       7.60808858      12.43918664      -0.00630862       0.00104920       0.00678226
Ti       1.28874078       4.90141962      13.23944321      -0.00298707      -0.00425404      -0.00228923
Ti       3.08863850       6.71385960      13.86605968      -0.00426686      -0.00012259       0.00066255
Zr       0.59779830       2.16185181      14.10098761       0.00060771       0.01505922       0.00612390
Ti       3.16454187       3.93382908      14.68761959      -0.00831964       0.00719499      -0.00658314
Ti       0.71840778       7.17755473      15.37683919      -0.00217361      -0.00143306      -0.00212018
Ti       3.05281478       1.09058252      15.66560132      -0.00150122       0.00075352      -0.00072426
Ti       0.76097669       4.42951397      16.24816621      -0.00263276       0.00066737      -0.00139707
Ti       3.04600157       6.09924202      16.64344287      -0.00293560      -0.00095787      -0.00337762
Ti       0.74277494       1.65411748      17.21709472      -0.00201403       0.00005175      -0.00013402
Ti       3.06428246       3.32166252      17.55926171      -0.00371392      -0.00042912       0.00089696
Ti       0.73272366       6.64518099      18.17018098      -0.00231709      -0.00123992       0.00054046
Ti       3.06876843       0.55759877      18.53857411      -0.00215128       0.00064805      -0.00083726
Ti       0.73628236       3.87418964      19.14800013      -0.00295753       0.00158149       0.00365232
Ti       3.05583076       5.56545057      19.45888887      -0.00182053      -0.00253242       0.00239518
Ti       0.74421652       1.11187150      20.10540808      -0.00270793       0.00692915       0.00253724
Ti       3.05929285       2.75747445      20.47961284      -0.00223699       0.00900404       0.00650882
Ti       0.71812544       6.10672838      20.98165048      -0.00218138      -0.00600339       0.00365032
Ti       3.09843430       0.00110438      21.44483387      -0.00316319      -0.00033796       0.00628556
Ti       0.72059808       3.33816177      22.06758446      -0.00306369      -0.00109444       0.00699338
Ti       3.04840700       5.00202962      22.23695660      -0.00020793      -0.00328351       0.00013096
Ti       0.84207828       0.63129007      23.00941946      -0.00527857       0.00744214       0.01081443
Ti       2.95454456       2.26718283      23.45046128      -0.00118047       0.00191132       0.00327103
Ti       0.78451638       5.61347392      23.68806853      -0.00328940       0.00107324      -0.00780189
Ti       3.58940432       7.38986070      24.35355490       0.00478319       0.00498635      -0.00646633
Ti       0.37914575       2.81578480       0.00818083      -0.00158159       0.00238774      -0.00344583
Ti       2.70844206       4.56458350       0.00185340      -0.00026182      -0.00541057      -0.00411697
