52
Lattice="4.6568 0.0 0.0 0.0 7.770572 0.0 0.0 0.0 25.044546" Properties=species:S:1:pos:R:3:forces:R:3 job_name=CSL7-Zr-Zr-29-d-2.09 GB_type=CSL7 element=Zr system=Zr-29-d-2.09 distance=2.09 energy=-401.31310102 stress_kbar_3x3="_JSON [[-6.71046803, 0.1425387, 1.25182675], [0.14253867, -13.80777131, -0.58668513], [1.25182675, -0.58668514, -9.22412519]]" pbc="T T T"
Ti       1.82017858       7.40457668       0.71252359       0.00986629       0.00663016       0.00042939
Ti       4.62964879       5.61942674       1.36852951      -0.00008870       0.00290533       0.00445445
Ti       2.45830002       2.28428038       1.61463898       0.00258256       0.00120409      -0.00203607
Ti       4.56707527       0.64393239       2.07154344       0.00713474       0.00646930      -0.00539142
Ti       2.35870179       5.01831257       2.81894002      -0.00067234      -0.00248605       0.00193844
Ti       0.02761522       3.35514340       3.00143735       0.00302719       0.00023780      -0.00319326
Ti       2.30917877       0.01791191       3.63579295       0.00215742       0.00295414      -0.00016571
Ti       0.03033531       6.12158063       4.07343061      -0.00039148       0.00230034       0.00426847
Ti       2.34283514       2.77170834       4.57966710      -0.00074034       0.00342188      -0.00031944
Ti       0.00292668       1.13345071       4.97336564      -0.00166907       0.00202135      -0.00457916
Ti       2.34494124       5.57627390       5.59421413      -0.00085997       0.00249271       0.00034849
Ti       0.00674994       3.88677277       5.91860066      -0.00311207      -0.00012523       0.00118387
Ti       2.33432929       0.57293312       6.55450211      -0.00164125       0.00534342      -0.00345669
Ti       0.01327707       6.65910536       6.87927682      -0.00172974       0.00379339       0.00258741
Ti       2.32347161       3.32911843       7.49665956      -0.00128016       0.00123926       0.00767228
Ti       0.00828441       1.69271854       7.89619502      -0.00344918      -0.00100827      -0.00113280
Ti       2.34884480       6.10958751       8.40400017      -0.00399478       0.00583269      -0.00243558
Ti       4.62555332       4.44192986       8.82416579       0.00107101      -0.00063809       0.00287943
Ti       2.33255773       1.10902132       9.47746787      -0.00157120       0.00362584       0.00337694
Ti       0.00869098       7.21997614       9.65088213       0.00023825      -0.00411339       0.00414986
Ti       2.20342671       3.81354877      10.40135341       0.01232433       0.00227388       0.01216379
Ti       0.10929401       2.19014823      10.89200033       0.00493439       0.00211269       0.00450678
Ti       2.27443819       6.60143319      11.11549434       0.00638719       0.00123717      -0.00284978
Ti       4.15390968       4.86656883      11.70362337       0.00895200      -0.00417240       0.00458463
Ti       2.66335544       1.59911652      12.44314263      -0.00087097      -0.01421318      -0.00526980
Ti       0.35214015       7.63158755      12.47120556      -0.00135894       0.01927675      -0.00486865
Ti       1.19286377       4.82201714      13.17129537      -0.01136343      -0.00683421      -0.00799703
Ti       3.07247861       6.66789612      13.84660789      -0.00552744      -0.00582609       0.00631875
Ti       0.66009168       2.03264293      14.15621455      -0.00167874      -0.00118066      -0.00764153
Zr       3.19898009       3.80355352      14.57387972      -0.00233188      -0.01263940      -0.00400686
Ti       0.74671871       7.13860096      15.34563154      -0.00149412      -0.00996519      -0.00212402
Ti       3.09054619       1.03202778      15.60402040      -0.00106927      -0.00261229      -0.00337574
Ti       0.79431639       4.40853773      16.28220769       0.00041797       0.00306010       0.00120413
Ti       3.07184419       6.09801159      16.65690356       0.00284501       0.00127388       0.00679850
Ti       0.76225917       1.65221671      17.14518990      -0.00025703      -0.00379223       0.00320083
Ti       3.08288579       3.29301583      17.60963946       0.00208171      -0.00150495      -0.00284473
Ti       0.74575425       6.64659154      18.16180940       0.00040448       0.00528715      -0.00270254
Ti       3.08422600       0.55332113      18.52244644       0.00029248       0.00053170       0.00500106
Ti       0.75023384       3.86013659      19.15422780       0.00287075      -0.00349574       0.00172861
Ti       3.06779214       5.55766879      19.45908295       0.00026395      -0.00012345      -0.00130141
Ti       0.76092975       1.12108765      20.08291940       0.00110145      -0.00162619       0.00133178
Ti       3.07700091       2.75891964      20.50027164       0.00044814      -0.00240242      -0.00082482
Ti       0.72876553       6.10921852      20.97573881       0.00081548      -0.00241942      -0.00443374
Ti       3.10816843       0.00337492      21.43477989      -0.00205658       0.00272459      -0.00440590
Ti       0.73557648       3.34561054      22.07261813      -0.00261617      -0.00485791      -0.00214471
Ti       3.05936290       5.01044878      22.24252043       0.00068870      -0.00229120      -0.00344443
Ti       0.84768413       0.64268328      22.99246666      -0.00730923       0.00171074       0.00263085
Ti       2.95626974       2.27507406      23.46461589      -0.00291594       0.00064476       0.00208566
Ti       0.78926560       5.62451955      23.68889648       0.00113542       0.00153537      -0.00481259
Ti       3.59952620       7.40022255      24.35283597      -0.01240445       0.00563320       0.00261728
Ti       0.38068809       2.82273442       0.01143406       0.00182553       0.00632668       0.00076649
Ti       2.70660223       4.58034658       0.00762317       0.00058802      -0.01577240      -0.00046973
