52
Lattice="4.6568 0.0 0.0 0.0 7.770572 0.0 0.0 0.0 25.044546" Properties=species:S:1:pos:R:3:forces:R:3 job_name=CSL7-Zn-Zn-29-d-2.09 GB_type=CSL7 element=Zn system=Zn-29-d-2.09 distance=2.09 energy=-394.08521899 stress_kbar_3x3="_JSON [[-14.05255316, -0.94120801, 0.92049991], [-0.94120801, -25.06482462, 0.06362623], [0.92049992, 0.06362618, -18.0800753]]" pbc="T T T"
Ti       1.81614167       7.39316946       0.70278483      -0.00553293      -0.00196153      -0.00118044
Ti       4.63103605       5.59486846       1.36072862       0.00466209       0.00011358      -0.00368683
Ti       2.45851592       2.27288306       1.60708998      -0.00161427       0.00373538      -0.00629232
Ti       4.56678784       0.62365031       2.07650745       0.00435090      -0.00464271      -0.00750017
Ti       2.35805245       5.00706398       2.82103775      -0.00068651      -0.00553914      -0.00144303
Ti       0.02236641       3.33499443       3.01184634       0.00038513      -0.00282260      -0.00036027
Ti       2.30936831       0.01024744       3.64529817      -0.00068501      -0.00354139       0.00170103
Ti       0.03241527       6.10117309       4.08816182      -0.00020144      -0.00408693       0.00047469
Ti       2.33689756       2.76081924       4.59640324       0.00053670      -0.00329231       0.00199211
Ti       0.00442937       1.11270798       4.99234988       0.00010865      -0.00116682       0.00581672
Ti       2.34801304       5.56249189       5.61090331       0.00091420      -0.00356479       0.00891409
Ti       0.00764478       3.86618508       5.95034917       0.00038756      -0.00335800       0.00163865
Ti       2.33744145       0.56120849       6.57044929      -0.00019267      -0.00534560       0.00185934
Ti       0.01247448       6.63543697       6.91001978       0.00061516      -0.00691094       0.00079284
Ti       2.33077713       3.30825107       7.53720811      -0.00054275      -0.00187357      -0.00166896
Ti       0.01158833       1.65971219       7.92545855      -0.00113764      -0.00540637      -0.00250977
Ti       2.34483123       6.09682554       8.43412541      -0.00080408      -0.00201880      -0.00403830
Ti       4.61743987       4.42007043       8.89109134      -0.00182901       0.00034429      -0.00095443
Ti       2.36418732       1.08143497       9.50997471      -0.00135124      -0.00578929       0.00675899
Ti       0.00899685       7.16227190       9.71055960       0.00288299      -0.00181449       0.00585083
Ti       2.24092953       3.80205634      10.44341536      -0.00061346       0.00053210       0.00382599
Ti       0.12123760       2.14739108      10.88788613      -0.00685268      -0.00062595       0.00046569
Ti       2.29364599       6.60676036      11.18776433      -0.00214177       0.00999386      -0.00433066
Ti       4.03907157       4.74214458      11.91668959      -0.00812111       0.00306594      -0.00488118
Ti       2.73612389       1.68225465      12.49846691       0.00147872      -0.00023744      -0.00246816
Ti       0.32270808       7.66568292      12.53277663      -0.00510019       0.00388343      -0.00621314
Ti       1.24572018       4.91908822      13.24541600       0.01103718       0.00587989       0.01164851
Ti       3.07907918       6.65801868      13.91495322       0.00011570       0.00723754       0.00679382
Ti       0.67536876       2.22698113      14.11969668      -0.00190046      -0.00398443      -0.00454651
Zn       3.21270266       3.85029200      14.62949481      -0.00953826       0.01547301      -0.00784092
Ti       0.73660674       7.25918640      15.35051122       0.00260300       0.00718459      -0.00342569
Ti       3.07921945       1.19032683      15.55779590       0.00240759      -0.00145751      -0.00338551
Ti       0.83294500       4.41629407      16.11731524       0.00197729       0.00363450       0.00645971
Ti       3.04220401       6.13262842      16.58011080       0.00179086       0.00475544      -0.00661250
Ti       0.76270933       1.66410020      17.17127276       0.00287599      -0.00010772       0.00054701
Ti       3.08112142       3.31396515      17.49533957       0.00229288       0.00365327       0.00361975
Ti       0.73889955       6.60992835      18.12098089       0.00125742       0.00100380      -0.00075812
Ti       3.08217270       0.55122386      18.46468796       0.00056356       0.00035779      -0.00302326
Ti       0.74376569       3.86625860      19.08586117       0.00217510       0.00268908      -0.00146948
Ti       3.06089204       5.55645715      19.41584190       0.00053838       0.00257065      -0.00632869
Ti       0.75628205       1.09522036      20.06497074      -0.00022358       0.00185750      -0.00229044
Ti       3.06885940       2.74973027      20.42485731       0.00012368       0.00040078       0.00137949
Ti       0.72480832       6.09547537      20.94165569       0.00094770       0.00135517       0.00132942
Ti       3.10717524       7.76823128      21.39342914       0.00049720       0.00006862       0.00259905
Ti       0.72441995       3.33240798      22.01216843       0.00008004      -0.00223833       0.00558583
Ti       3.05184071       4.99768363      22.20397637       0.00051890      -0.00058528       0.00221441
Ti       0.84663271       0.61506977      22.95793353      -0.00348791      -0.00387756       0.00676419
Ti       2.95064080       2.27277058      23.41172268       0.00122715       0.00031642       0.00525896
Ti       0.77621768       5.59121156      23.67058190      -0.00391166       0.00359336       0.00173788
Ti       3.59046602       7.39289610      24.33186380       0.00693624      -0.00007468      -0.00573844
Ti       0.37289190       2.79714289      25.03836066      -0.00008584       0.00057939      -0.00165393
Ti       2.70412742       4.56686985      25.03747764       0.00026650      -0.00795521      -0.00142784
