52
Lattice="4.6568 0.0 0.0 0.0 7.770572 0.0 0.0 0.0 25.044546" Properties=species:S:1:pos:R:3 job_name=CSL7-Zn-Zn-30-d-2.82 GB_type=CSL7 element=Zn system=Zn-30-d-2.82 distance=2.82 energy=-394.33284029 pbc="T T T"
Ti       1.81495943       7.39350102       0.70900270
Ti       4.62959608       5.61188469       1.35887097
Ti       2.46257724       2.27356123       1.60310056
Ti       4.56423243       0.62518610       2.08037328
Ti       2.35819453       5.01309797       2.82990155
Ti       0.02207778       3.34065543       3.01352894
Ti       2.30834366       0.01149023       3.64945356
Ti       0.02647065       6.10387790       4.09813376
Ti       2.34123983       2.77109567       4.59886065
Ti       0.00128666       1.12208966       4.99960443
Ti       2.34290553       5.56850112       5.61788701
Ti       0.00279311       3.88018006       5.94275756
Ti       2.33139456       0.56371810       6.58568627
Ti       0.00733405       6.65455459       6.92653330
Ti       2.32539879       3.32858441       7.53146514
Ti       0.00603151       1.67748561       7.93509636
Ti       2.33580291       6.11172478       8.45512747
Ti       4.62821055       4.43205313       8.87989345
Ti       2.33179249       1.10665177       9.50750379
Ti      -0.00047187       7.21195704       9.71868106
Ti       2.19614114       3.81014697      10.46597734
Ti       0.14734439       2.16873822      10.92808772
Ti       2.28232101       6.58457943      11.18982134
Ti       4.18854854       4.85261918      11.80845202
Ti       2.72775896       1.61434338      12.53002113
Ti       0.44165536       7.62550830      12.59294641
Ti       1.19857717       4.83155389      13.30279900
Ti       3.07710807       6.57648372      13.86974159
Ti       0.66477524       2.13247284      14.14437608
Ti       3.19709457       3.74049308      14.56115977
Zn       0.72525457       7.15216807      15.31687449
Ti       3.06417205       1.02501718      15.51750162
Ti       0.80773622       4.40633584      16.13521724
Ti       3.04562752       6.14703715      16.59751004
Ti       0.74333256       1.63776279      17.12728100
Ti       3.08912821       3.30255494      17.46963385
Ti       0.73060751       6.68191078      18.10667441
Ti       3.06808578       0.56729231      18.51224327
Ti       0.74906684       3.88426220      19.06692505
Ti       3.07232464       5.57495419      19.38377632
Ti       0.74389510       1.13730382      20.06283981
Ti       3.06332688       2.79066698      20.44537865
Ti       0.72724311       6.12441992      20.91047205
Ti       3.11065913       0.02050472      21.41859149
Ti       0.72210287       3.36210668      22.01705613
Ti       3.05026812       5.01671302      22.19845852
Ti       0.84623435       0.63827248      22.97111360
Ti       2.95789625       2.29324348      23.40730783
Ti       0.77244823       5.61609940      23.66850928
Ti       3.59444607       7.41025105      24.33664077
Ti       0.37144435       2.81236271      25.03717518
Ti       2.70409618       4.59061343      25.03559751
