52
Lattice="4.6568 0.0 0.0 0.0 7.770572 0.0 0.0 0.0 25.044546" Properties=species:S:1:pos:R:3:forces:R:3 job_name=CSL7-Al-Al-36-d-5.61 GB_type=CSL7 element=Al system=Al-36-d-5.61 distance=5.61 energy=-397.62885111 stress_kbar_3x3="_JSON [[-15.53775988, 0.14297239, -0.20719564], [0.14297238, -24.08273653, 0.31664326], [-0.20719565, 0.31664322, -21.54854155]]" pbc="T T T"
Ti       1.81787175       7.39573761       0.70370861       0.00433962       0.00942776      -0.00802578
Ti       4.62504202       5.61286235       1.35665091      -0.00201865      -0.00134270       0.00143877
Ti       2.46475369       2.28388117       1.58848492       0.00292317       0.00384072       0.00672045
Ti       4.56667402       0.63525137       2.07066997      -0.00469395       0.01106439       0.00268904
Ti       2.35622314       5.00527604       2.81479619       0.00119880       0.00526116       0.00267774
Ti       0.02566725       3.33995009       3.00585714       0.00150689       0.00050113      -0.00132481
Ti       2.31082224       0.01118198       3.64035635       0.00185895       0.00304295      -0.00173350
Ti       0.02949465       6.10638413       4.08142634       0.00153865       0.00393573       0.00199533
Ti       2.34382226       2.76344267       4.59162375       0.00087605       0.00286819      -0.00250826
Ti       0.00498800       1.11671385       4.99087720       0.00086115       0.00187243      -0.00392605
Ti       2.34413021       5.56838855       5.61190543       0.00331236       0.00148773      -0.00009952
Ti       0.00898173       3.87309774       5.94455540       0.00216486       0.00319021      -0.00211881
Ti       2.33718849       0.56625393       6.57520444       0.00128208      -0.00171551       0.00195434
Ti       0.01529840       6.64143273       6.91564445       0.00352675       0.00120249       0.00186277
Ti       2.33502927       3.32451405       7.53115647      -0.00008968       0.00147634       0.00148680
Ti       0.01467751       1.67436394       7.92614181       0.00099595       0.00095525       0.00504736
Ti       2.35779860       6.10817897       8.44584886       0.00216332       0.00096720      -0.00081126
Ti       4.64141408       4.42728718       8.87941933       0.00043924       0.00099996      -0.00080255
Ti       2.35485880       1.11059974       9.51053115       0.00116931      -0.00035892       0.00055018
Ti       0.02865440       7.20471460       9.71636079       0.00149107      -0.00025275      -0.00730392
Ti       2.23603209       3.82635236      10.45453572      -0.00147907      -0.00838683      -0.00594944
Ti       0.13314283       2.16442576      10.91473191       0.00473775      -0.00055469       0.00386393
Ti       2.30366826       6.62467187      11.17254835       0.00091707      -0.00280573      -0.00808838
Ti       4.14632896       4.82046998      11.83293406       0.00634138      -0.00340937      -0.00253820
Ti       2.70492308       1.65394667      12.52281758      -0.00147340      -0.00782089      -0.00267157
Ti       0.39075832       7.65103618      12.56223942      -0.00668586      -0.00740669       0.00430129
Ti       1.25899947       4.82904412      13.25540996      -0.01011722      -0.00293364      -0.00857234
Ti       3.11375736       6.58213881      13.90912112       0.00273202       0.00692781       0.00358773
Ti       0.60428798       2.18574885      14.13246931       0.00438636      -0.00235180       0.00108113
Ti       3.17540473       3.82867831      14.64111359       0.00471938      -0.00654356       0.00359784
Ti       0.72824889       7.19172771      15.38742150      -0.00285710      -0.00344951      -0.00190207
Ti       3.02300219       1.09884486      15.45664666       0.00648002      -0.00206241       0.00070587
Ti       0.79276283       4.42356549      16.22044907      -0.00291609      -0.00332253      -0.00066258
Ti       3.05999377       6.06659139      16.66355894      -0.00157098       0.00011921       0.00513148
Ti       0.73768712       1.61946150      17.10942413      -0.00195680      -0.00451824       0.00315372
Ti       3.08082112       3.23316262      17.49659515      -0.00437126       0.00107610      -0.00018585
Al       0.73566163       6.64297181      18.14888151      -0.00740856      -0.00721271       0.00654818
Ti       3.06631760       0.47128974      18.46444596      -0.00388969      -0.00677500       0.00167077
Ti       0.74703463       3.87655625      19.06701081      -0.00419057       0.00081583       0.00193374
Ti       3.05834064       5.56731837      19.39277219      -0.00354331       0.00093070      -0.00028579
Ti       0.73706403       1.10051055      20.05541284      -0.00156579       0.00053638      -0.00251556
Ti       3.06242342       2.74977996      20.41821160      -0.00006275       0.00044203       0.00074910
Ti       0.72203388       6.14483471      20.92117138      -0.00051897       0.00222331      -0.00723242
Ti       3.10699409       0.01167069      21.46115147       0.00159386       0.00318194      -0.00164724
Ti       0.71734680       3.35736437      22.00508855       0.00141693      -0.00060223       0.00032426
Ti       3.04494314       5.00612379      22.17166096      -0.00111875      -0.00154115       0.00039084
Ti       0.83759345       0.66067943      22.98872968       0.00211560       0.00665182      -0.00394035
Ti       2.94995353       2.29952138      23.41780807       0.00024160       0.00020235       0.00485984
Ti       0.78251623       5.63507573      23.63906734       0.00272537      -0.00443038       0.00147035
Ti       3.58918850       7.41484271      24.34497066      -0.00522590       0.00261165       0.00843250
Ti       0.37688077       2.83481803      25.03145485      -0.00100168       0.00062182      -0.00141701
Ti       2.71338908       4.58790596      25.01654851      -0.00129952       0.00136266      -0.00196208
