52
Lattice="4.6568 0.0 0.0 0.0 7.770572 0.0 0.0 0.0 25.044546" Properties=species:S:1:pos:R:3:forces:R:3 job_name=CSL7-Cu-Cu-28-d-1.62 GB_type=CSL7 element=Cu system=Cu-28-d-1.62 distance=1.62 energy=-396.22612629 stress_kbar_3x3="_JSON [[-18.74794271, 0.21285626, 2.20699735], [0.21285628, -28.69913188, -2.32611543], [2.20699738, -2.32611544, -24.35963015]]" pbc="T T T"
Ti       1.81328284       7.42779767       0.69985964       0.01001724       0.00083367      -0.00609273
Ti       4.64022350       5.62396840       1.36685949      -0.00595720      -0.00476397       0.00780867
Ti       2.45895040       2.30559917       1.61484172      -0.00005919       0.00228553       0.00492166
Ti       4.56776691       0.65141131       2.08805683      -0.00496516       0.00260210       0.00677773
Ti       2.36346630       5.04566785       2.84197257       0.00373233       0.00279284      -0.00402321
Ti       0.02653250       3.36354078       3.01429519      -0.00268244       0.00484944      -0.00275706
Ti       2.30994703       0.04460622       3.65367482      -0.00056300       0.00272469      -0.00214127
Ti       0.02773165       6.14337678       4.10914926      -0.00034293       0.00296335      -0.00842534
Ti       2.33855828       2.79746323       4.60172975       0.00064721      -0.00130297      -0.00296826
Ti       0.00580161       1.14749530       5.00892570      -0.00173055       0.00290498      -0.00339125
Ti       2.34335487       5.61063221       5.64423425      -0.00188045       0.00204696      -0.00392276
Ti       0.00173704       3.90829678       5.94278592      -0.00151542      -0.00020496       0.00014948
Ti       2.33450592       0.59434688       6.59410645      -0.00125705       0.00634516      -0.00088347
Ti       0.00646168       6.67802064       6.95383000      -0.00237341       0.00276110       0.00505806
Ti       2.31206735       3.36832458       7.52716369      -0.00341864       0.00105380       0.00302494
Ti       0.00583587       1.71016431       7.94677166      -0.00074099       0.00290358       0.00310097
Ti       2.34259805       6.14446549       8.50478613      -0.00286558       0.00155214       0.01173158
Ti       4.61870340       4.44894148       8.87294993      -0.00227911       0.00212555       0.00457206
Ti       2.33746743       1.15772109       9.53398810      -0.00428355      -0.00031241       0.00568606
Ti       4.64641367       7.25424573       9.76727387       0.00110653       0.00411774       0.00608976
Ti       2.21224001       3.84182135      10.43330740      -0.00124445       0.00375840       0.00536661
Ti       0.11522150       2.21673799      10.96224498      -0.00353512       0.00409270      -0.00228375
Ti       2.23780806       6.69497660      11.26020568      -0.00536860       0.00606776      -0.00078831
Ti       4.16838524       4.89680150      11.72924138       0.00156854      -0.00063488      -0.00839778
Ti       2.57823682       1.65471746      12.47702451      -0.00820360       0.00288070      -0.00823310
Ti       0.23993438       7.72865892      12.66335157      -0.00433264       0.01388036      -0.00705450
Ti       1.23349941       4.60367802      13.19900702       0.00012016      -0.00792522      -0.00597764
Ti       3.11697291       6.37311085      13.93028504      -0.00198154      -0.00798283       0.00329375
Cu       0.75162876       2.09956455      14.34095903      -0.00053820       0.00224149       0.01466906
Ti       3.25304090       3.60730809      14.53019375       0.00488538      -0.00070594      -0.00895073
Ti       0.72758798       7.06070065      15.29228931       0.00546860      -0.01213039       0.00274328
Ti       3.05600159       0.97040158      15.38430680       0.00167881      -0.00619126      -0.00741013
Ti       0.84300526       4.38636561      16.15692426       0.00619503      -0.00062755       0.00181491
Ti       3.07817059       6.07091380      16.60223242      -0.00024862      -0.00457220      -0.00904914
Ti       0.73074611       1.65597151      17.07123625       0.00226564       0.00170112       0.00269325
Ti       3.10421756       3.27185031      17.49727840       0.00324390       0.00103776       0.00002873
Ti       0.75733187       6.64103406      18.10021488       0.00350323      -0.00439521      -0.00092285
Ti       3.09766289       0.54423600      18.42468106       0.00148703      -0.00745230       0.00438777
Ti       0.75844993       3.86472517      19.06870281       0.00197537      -0.00272465       0.00198286
Ti       3.07842912       5.56755823      19.40996505       0.00276090      -0.00292727       0.00438260
Ti       0.76168194       1.12019699      19.99870234       0.00242207      -0.00079048       0.00473821
Ti       3.08622399       2.76089176      20.44560934       0.00011308      -0.00397678       0.00765302
Ti       0.73087669       6.10848525      20.92782579       0.00232242      -0.00680280       0.00856586
Ti       3.10784156       0.01574451      21.35772676       0.00142906      -0.00101660       0.00284659
Ti       0.73736153       3.34912270      22.00458832       0.00478030       0.00072606      -0.00010477
Ti       3.06185056       5.01744438      22.20579715      -0.00422667      -0.00452339       0.00253868
Ti       0.84431839       0.64166671      22.92503620       0.00593079       0.00232042      -0.00800960
Ti       2.95086440       2.29456758      23.42021868      -0.00147717      -0.00009140      -0.00633231
Ti       0.78114884       5.61424985      23.66576391       0.00788457      -0.00535478      -0.01237706
Ti       3.60163603       7.41530124      24.32133187      -0.00617204      -0.00036771       0.00083927
Ti       0.37384947       2.81578782      25.03735901      -0.00099079      -0.00007039      -0.00350027
Ti       2.70006035       4.59996565       0.00221037      -0.00030409       0.00427893      -0.00346812
