52
Lattice="4.6568 0.0 0.0 0.0 7.770572 0.0 0.0 0.0 25.044546" Properties=species:S:1:pos:R:3:forces:R:3 job_name=CSL7-Cu-Cu-35-d-4.99 GB_type=CSL7 element=Cu system=Cu-35-d-4.99 distance=4.99 energy=-396.34517307 stress_kbar_3x3="_JSON [[-18.46432608, 0.01804788, -0.66152719], [0.01804788, -29.40500993, 0.173473], [-0.66152718, 0.173473, -25.99198285]]" pbc="T T T"
Ti       1.82106169       7.37484863       0.69117089      -0.00056145      -0.00386406      -0.00179851
Ti       4.62536873       5.58735287       1.34383274      -0.00457049      -0.00336635      -0.00132556
Ti       2.46091065       2.26426999       1.58965176       0.00293505      -0.00467032       0.00220956
Ti       4.56659529       0.60640313       2.06258026      -0.00297232      -0.00024469       0.00281011
Ti       2.35598748       4.99875943       2.80571051       0.00121542      -0.00615110      -0.00247215
Ti       0.02273126       3.32322001       3.00126741      -0.00034928      -0.00332469      -0.00068994
Ti       2.31199033       0.00550341       3.64080276       0.00101192      -0.00371335      -0.00194836
Ti       0.02941175       6.09204457       4.07822037       0.00192426      -0.00345970      -0.00219052
Ti       2.34221798       2.75635190       4.59518263       0.00106472      -0.00501624      -0.00080406
Ti       0.00609709       1.10554652       4.99018277       0.00134397      -0.00544138      -0.00088607
Ti       2.34847783       5.55699889       5.61089369       0.00115487      -0.00357013       0.00240580
Ti       0.01268081       3.86182447       5.94906773       0.00165185      -0.00380552      -0.00046369
Ti       2.33907089       0.55305723       6.57929943       0.00161701      -0.00616228       0.00286167
Ti       0.02305634       6.62476044       6.91505807       0.00127930      -0.00441732       0.00302120
Ti       2.33790435       3.30896941       7.53888306       0.00179641      -0.00379312       0.00368636
Ti       0.01700587       1.65807349       7.92601885       0.00195151      -0.00700373       0.00088630
Ti       2.35916161       6.08403405       8.44878387       0.00167601      -0.00232240       0.00401599
Ti       4.64402009       4.40574523       8.89311495       0.00174430      -0.00366174      -0.00021945
Ti       2.35472205       1.08861451       9.51646881       0.00099274      -0.00594904      -0.00099247
Ti       0.03673396       7.18046231       9.70729691       0.00255980      -0.00544621      -0.00000087
Ti       2.22943322       3.79991624      10.49374794      -0.00154669      -0.00151006      -0.00244978
Ti       0.11874255       2.12876303      10.90566391       0.00383204      -0.00166612      -0.00715600
Ti       2.32495378       6.60128321      11.19411695      -0.00006864      -0.00038299      -0.00368302
Ti       4.17264167       4.79160810      11.83801171       0.00099403       0.00480920      -0.00149811
Ti       2.71189714       1.62915310      12.55953032       0.00112212      -0.00225321      -0.00030991
Ti       0.36815020       7.61593507      12.54712915      -0.00011326      -0.01181124      -0.00056005
Ti       1.25776119       4.83182515      13.33003980       0.00212537       0.00776218      -0.00184642
Ti       3.14462105       6.57529717      13.94678561       0.00556393       0.00401935       0.00085406
Ti       0.62685491       2.16824744      14.10986689      -0.00446183       0.00274839       0.00349984
Ti       3.20807770       3.78002602      14.65204706       0.00434262      -0.00280616       0.00785147
Ti       0.75399897       7.25784319      15.38145038      -0.00084419       0.00701300      -0.00012014
Ti       3.09804173       1.13509290      15.54143512       0.00113246       0.00375371       0.00216240
Ti       0.75472918       4.50199761      16.27562288       0.00009565       0.00607504       0.00457996
Ti       3.04761293       6.14337442      16.65612998      -0.00098241       0.00501660       0.00409196
Ti       0.71946668       1.80983093      17.12104375      -0.00144990       0.00487543      -0.00164506
Cu       3.06142827       3.36639388      17.48386416      -0.00035173       0.00431125      -0.00255902
Ti       0.72409101       6.77236036      18.13617945      -0.00105848       0.00735101      -0.00085403
Ti       3.06217806       0.68540462      18.48903227      -0.00164580       0.00726918      -0.00346321
Ti       0.71961425       3.88665353      19.01584176      -0.00167047       0.00664671      -0.00285326
Ti       3.05038614       5.60868416      19.34582950      -0.00142175       0.00721126      -0.00535652
Ti       0.73501406       1.11694057      20.09887453      -0.00255126       0.00101469      -0.00133167
Ti       3.04293673       2.74996262      20.39028330      -0.00191033       0.00476888      -0.00410504
Ti       0.71385090       6.07530022      20.92956708      -0.00321958       0.00381403      -0.00199791
Ti       3.08575306       7.75681538      21.36688948      -0.00300183       0.00421270      -0.00111345
Ti       0.70898587       3.32877569      22.01084406      -0.00242457       0.00489064       0.00055446
Ti       3.03999644       4.98791887      22.14907107      -0.00386436       0.00476954      -0.00092279
Ti       0.83534712       0.60357682      22.97322980       0.00270691       0.00294588      -0.00265231
Ti       2.94769687       2.25709528      23.38539709      -0.00385458      -0.00244620      -0.00173929
Ti       0.77776078       5.58258684      23.63376517       0.00197077       0.00046855       0.00400473
Ti       3.57738498       7.37934885      24.31349037      -0.00279899      -0.00449547       0.00664473
Ti       0.37425942       2.78774193      25.01543874      -0.00043275      -0.00472610       0.00348118
Ti       2.71201804       4.54862091      25.00391558      -0.00167809       0.01173365       0.00238687
