64
Lattice="5.872 0.0 0.0 0.0 6.890708 0.0 0.0 0.0 27.394398" Properties=species:S:1:pos:R:3:forces:R:3 job_name=T1g-Cu-Cu-30-d-0.22 GB_type=T1g element=Cu system=Cu-30-d-0.22 distance=0.22 energy=-490.87865346 stress_kbar_3x3="_JSON [[-13.68721273, -0.00012383, 7.29e-05], [-0.00012381, -16.14457804, -4.26939772], [7.292e-05, -4.26939773, -24.33078747]]" pbc="T T T"
Ti       4.40400410       5.19870074       0.00633125      -0.00002396      -0.01353521       0.00668660
Ti       1.46801752       5.19751908       0.00658402       0.00003987      -0.01461416       0.00726115
Ti       5.86880856       3.16696221       1.29109727       0.00027070      -0.01043534      -0.00849120
Ti       2.93920162       3.16696311       1.29110283      -0.00028138      -0.01045861      -0.00850196
Ti       0.00420443       6.64214780       1.91401168      -0.00017552       0.00924773       0.00586539
Ti       2.93180234       6.64214940       1.91400975       0.00016528       0.00924767       0.00584401
Ti       4.40403018       1.77026903       3.22047959      -0.00001501      -0.00220495       0.01318737
Ti       1.46798043       1.77160988       3.21880394       0.00001071      -0.00147011       0.01196831
Ti       1.46798360       4.60220997       3.40984405      -0.00001700       0.01157260      -0.00811139
Ti       4.40398565       4.59967201       3.41489277       0.00003935       0.01188896      -0.00799773
Ti       5.87179816       6.72833728       4.74263467      -0.00022847       0.00603370      -0.00552430
Ti       2.93621225       6.72833991       4.74262841       0.00017208       0.00593129      -0.00545332
Ti       2.93743458       2.90104266       5.35567987       0.00108320       0.00538922       0.00096111
Ti       5.87055235       2.90105212       5.35569109      -0.00105903       0.00536563       0.00096579
Ti       4.40400129       5.02216107       6.52927287      -0.00000841       0.00789202       0.00307962
Ti       1.46801541       5.02841668       6.50924071       0.00001278       0.00722444       0.00339141
Ti       4.40399373       0.95990086       6.98099004       0.00000136       0.00810257      -0.00542426
Ti       1.46800944       0.96084017       7.00196614      -0.00000475       0.01097887      -0.00424230
Ti       2.91747219       3.12466110       8.18379663       0.00112538       0.00854309      -0.00155126
Ti       0.01853402       3.12465041       8.18379932      -0.00107229       0.00852621      -0.00154867
Ti       2.92020951       6.07682759       8.78127844       0.00269092       0.00331331       0.00079561
Ti       0.01581264       6.07684893       8.78128996      -0.00269753       0.00323805       0.00068848
Ti       4.40399515       1.32742824       9.96296817       0.00000354       0.00785260       0.00058289
Ti       1.46799892       1.36594667      10.00166873       0.00002370       0.00360298      -0.00190820
Ti       4.40400645       4.16937128      10.38879882      -0.00003657       0.00669479      -0.00381647
Ti       1.46802165       4.18611435      10.46369595       0.00001545       0.00458295      -0.00608088
Ti       2.97478141       6.33088171      11.62362016       0.00961605       0.00900174      -0.00030441
Ti       5.83323268       6.33089074      11.62362767      -0.00960495       0.00898478      -0.00029003
Ti       2.91218877       2.45839163      12.17803117       0.00712404      -0.00145550       0.00183460
Ti       0.02382622       2.45839479      12.17801043      -0.00712742      -0.00154028       0.00203605
Cu       1.46801781       4.56742921      13.39836269       0.00008188      -0.00096035      -0.00273654
Ti       4.40400748       4.65958827      13.33569604       0.00004605       0.00777369      -0.00451740
Ti       4.40403139       0.61120339      13.83604840       0.00000112      -0.00113079      -0.00318060
Ti       1.46800102       0.45668356      13.79228759       0.00001145       0.00421000      -0.00277209
Ti       0.07632560       2.65071385      14.93268573      -0.00353098       0.00733654      -0.00222372
Ti       2.85972909       2.65069152      14.93268237       0.00332556       0.00722781      -0.00207637
Ti       5.84862631       5.81379182      15.53964182      -0.00785757      -0.00401397       0.01097866
Ti       2.95942000       5.81380437      15.53965996       0.00776827      -0.00403287       0.01101100
Ti       4.40402100       3.82548456      16.91284264      -0.00007180       0.01671615       0.00926927
Ti       1.46801931       3.84527998      16.98295114       0.00003473       0.01294714       0.00684054
Ti       4.40400438       0.99981092      17.00489760      -0.00000011      -0.01237022      -0.00241147
Ti       1.46800502       0.98748486      16.89760478       0.00008176      -0.01295213       0.00190971
Ti       5.85447336       5.82087796      18.38277264      -0.00139544      -0.01306885      -0.00902028
Ti       2.95357054       5.82089541      18.38278336       0.00137374      -0.01328072      -0.00921918
Ti       2.94077003       2.69777135      19.00000214      -0.00181521       0.00621057      -0.00183026
Ti       5.86725893       2.69777670      19.00002715       0.00175142       0.00609714      -0.00181047
Ti       4.40400598       0.59190157      20.16959647       0.00008118      -0.00613183       0.00238846
Ti       1.46802018       0.60037565      20.15067919      -0.00003190      -0.00461136       0.00220992
Ti       1.46804236       4.68105660      20.60844207      -0.00003834      -0.00784657      -0.00486817
Ti       4.40402928       4.67092228      20.63272271       0.00002080      -0.00676242      -0.00433924
Ti       2.93206281       2.53170747      21.81329571      -0.00056794      -0.00862613      -0.00236917
Ti       0.00400918       2.53168541      21.81331210       0.00054522      -0.00849429      -0.00248802
Ti       2.93477077       6.48482514      22.41604685       0.00073919      -0.00339015       0.00293117
Ti       0.00124835       6.48481527      22.41604847      -0.00071053      -0.00334056       0.00293093
Ti       4.40401593       4.33815665      23.60848770      -0.00005304      -0.00671191       0.00117346
Ti       1.46800048       4.33678160      23.59921407       0.00006845      -0.00788409       0.00138174
Ti       4.40401998       1.52449334      24.08434982      -0.00001328      -0.00941533       0.00036508
Ti       1.46801111       1.52661099      24.08540194       0.00004625      -0.00733513       0.00025856
Ti       2.93356214       6.28782787      25.24249866       0.00064387      -0.01845583       0.00434960
Ti       0.00247036       6.28783827      25.24250010      -0.00064875      -0.01850268       0.00438057
Ti       5.87142818       3.25925016      25.86041311       0.00054157       0.00303509       0.00787302
Ti       2.93656191       3.25925495      25.86039647      -0.00049413       0.00306029       0.00799691
Ti       1.46799069       1.12950225      27.16621292       0.00004502      -0.00100663      -0.00934169
Ti       4.40399968       1.13085479      27.16785446      -0.00002062      -0.00179066      -0.00894593
