64
Lattice="5.872 0.0 0.0 0.0 6.890708 0.0 0.0 0.0 27.394398" Properties=species:S:1:pos:R:3:forces:R:3 job_name=T1g-Cu-Cu-48-d-6.96 GB_type=T1g element=Cu system=Cu-48-d-6.96 distance=6.96 energy=-490.94042691 stress_kbar_3x3="_JSON [[-13.48797736, -0.00071939, 0.00030475], [-0.00071939, -15.12241135, 0.48991229], [0.00030475, 0.4899123, -23.07656891]]" pbc="T T T"
Ti       4.40406384       5.21391970      27.28754045       0.00005259      -0.00124137      -0.01083902
Ti       1.46796974       5.22265215      27.29981469      -0.00008768      -0.00041768      -0.00678247
Ti       5.86802005       3.23289567       1.26203092      -0.00105502       0.01213797      -0.00341385
Ti       2.94003708       3.23297508       1.26184881       0.00106930       0.01183069      -0.00259033
Ti       5.86595195       6.55715574       1.88007219      -0.00276641      -0.00847062       0.00340773
Ti       2.94212944       6.55720028       1.88013415       0.00269322      -0.00866164       0.00299684
Ti       4.40404406       1.73205350       3.13121233      -0.00013176      -0.00590068      -0.00678850
Ti       1.46806272       1.72978479       3.12706259      -0.00001992      -0.00616848      -0.00531258
Ti       1.46803808       4.55788091       3.43149671       0.00002662      -0.00841361       0.00838014
Ti       4.40405228       4.55893905       3.43443657      -0.00002976      -0.00912416       0.01100700
Ti       0.00163912       6.70392654       4.70500516       0.00020191      -0.00390808      -0.00343286
Ti       2.93441157       6.70395933       4.70481863      -0.00028214      -0.00401466      -0.00297902
Ti       2.93522816       2.81882268       5.31946110       0.00007941      -0.01242476      -0.00934509
Ti       0.00086055       2.81890155       5.31955822      -0.00014736      -0.01275106      -0.00969120
Ti       4.40403723       4.96343151       6.48222483      -0.00018216      -0.00586092      -0.00269849
Ti       1.46798862       4.96358770       6.48125222       0.00022493      -0.00644219      -0.00238116
Ti       4.40398162       0.89202179       6.96993177       0.00005699      -0.01203389       0.00294922
Ti       1.46801548       0.88965153       6.97083287       0.00000866      -0.01073206       0.00240618
Ti       2.93572822       3.05012248       8.14719130      -0.00055690      -0.01056275       0.00568642
Ti       0.00028962       3.05010575       8.14715785       0.00052588      -0.01063844       0.00578881
Ti       2.93562391       5.98412293       8.75592869      -0.00014390      -0.00681081      -0.00417057
Ti       0.00040894       5.98411319       8.75579686       0.00013864      -0.00667266      -0.00374595
Ti       4.40403838       1.25216858       9.95274231       0.00005586      -0.00721857      -0.00610186
Ti       1.46812648       1.25092690       9.95320992      -0.00039909      -0.00738875      -0.00577713
Ti       4.40393633       4.06396090      10.41076823       0.00015280      -0.00936366      -0.00842360
Ti       1.46801649       4.06332323      10.40852246      -0.00021224      -0.00881588      -0.00854890
Ti       2.94017573       6.17329674      11.57589561      -0.00023116      -0.00890334      -0.00011455
Ti       5.86783013       6.17330488      11.57596068       0.00017284      -0.00869163      -0.00034458
Ti       2.93259803       2.37817777      12.18901775       0.00043883      -0.00603727       0.00982149
Ti       0.00343092       2.37813493      12.18900104      -0.00044330      -0.00592403       0.00971316
Ti       1.46801684       4.48189088      13.55952089       0.00004636      -0.00236108       0.01387137
Ti       4.40402767       4.48100327      13.56389525      -0.00003859      -0.00304895       0.01244503
Ti       4.40394760       0.42372583      13.66670813       0.00013419       0.00011653      -0.00434139
Ti       1.46800930       0.42047647      13.65790636       0.00006257      -0.00059896      -0.00421165
Ti       0.00896901       2.39907122      15.02183758      -0.00019970      -0.01262945       0.00027206
Ti       2.92697819       2.39910252      15.02200429       0.00012351      -0.01248417      -0.00000992
Ti       5.86063235       6.00127119      15.64693508       0.00354560       0.00897835      -0.00409912
Ti       2.94732277       6.00128601      15.64697102      -0.00342019       0.00893920      -0.00429240
Ti       4.40402077       3.92170567      16.88567432      -0.00007103       0.00724962      -0.01335438
Ti       1.46790483       3.92727573      16.82619845       0.00004744       0.00755530      -0.01504475
Ti       4.40398840       1.09412500      17.17687963       0.00008866       0.00898573       0.00168750
Ti       1.46801271       1.08002309      17.24837406      -0.00012342       0.00793852       0.00710749
Ti       0.00829140       5.85362839      18.47928301      -0.00293021       0.00477743      -0.00319041
Ti       2.92774954       5.85365676      18.47939440       0.00288919       0.00461002      -0.00350801
Ti       2.87777536       2.89760040      19.04413645       0.00867471       0.00804294      -0.00177346
Ti       0.05818569       2.89766616      19.04403699      -0.00867759       0.00795702      -0.00176898
Ti       4.40394308       0.79928218      20.16282095       0.00027245       0.01600935       0.00051211
Ti       1.46803219       0.69305258      20.18107091      -0.00024377       0.00919377       0.00267794
Cu       1.46803281       4.79146499      20.68129121       0.00029670       0.00734082       0.00070654
Ti       4.40396751       4.86711323      20.72639753       0.00021871       0.00972460      -0.00034873
Ti       2.90682533       2.69243058      21.81539345       0.00639646       0.00458090      -0.00144376
Ti       0.02924947       2.69242356      21.81550857      -0.00647538       0.00458617      -0.00139995
Ti       2.97038455       6.56018172      22.38058569       0.00235737       0.00926211       0.01108434
Ti       5.83762949       6.56013591      22.38071887      -0.00225398       0.00942552       0.01075693
Ti       4.40405480       4.41462717      23.66422367      -0.00014625       0.00834733       0.01669343
Ti       1.46799505       4.42122264      23.60286500       0.00008476       0.01187544       0.01187873
Ti       4.40401256       1.57737007      24.01643059      -0.00013473       0.00745073      -0.00637971
Ti       1.46797590       1.62104057      23.97466467       0.00012067       0.00413505      -0.00647192
Ti       2.92116951       6.39252921      25.21610817      -0.00247206       0.00986765      -0.00372377
Ti       0.01479196       6.39259068      25.21592028       0.00255864       0.00978232      -0.00331581
Ti       0.01450026       3.25722878      25.82597155       0.00198266       0.00726780       0.00006970
Ti       2.92150344       3.25727566      25.82607177      -0.00193149       0.00705827      -0.00033535
Ti       1.46797972       1.16125501      27.17976324       0.00005021       0.00454616       0.01326177
Ti       4.40403113       1.15959848      27.20757234      -0.00004215       0.00514293       0.01731324
