64
Lattice="5.872 0.0 0.0 0.0 6.890708 0.0 0.0 0.0 27.394398" Properties=species:S:1:pos:R:3:forces:R:3 job_name=T1g-Zn-Zn-33-d-0.00 GB_type=T1g element=Zn system=Zn-33-d-0.00 distance=0.0 energy=-488.93970867 stress_kbar_3x3="_JSON [[-10.48380471, 0.00017439, -0.00115396], [0.0001744, -11.85714027, 1.69782429], [-0.00115397, 1.69782429, -21.37469665]]" pbc="T T T"
Ti       4.40401448       5.22037732      27.39025481       0.00000855       0.01011790       0.00155733
Ti       1.46800087       5.21970223      27.38871947      -0.00004833       0.00929621       0.00169783
Ti       5.86882250       3.20111803       1.29201673      -0.00039995       0.00456115       0.00087091
Ti       2.93911242       3.20111397       1.29200854       0.00050216       0.00453131       0.00090869
Ti       0.00690762       6.63268295       1.91189033      -0.00044375      -0.00330600       0.00355680
Ti       2.92912173       6.63270999       1.91186198       0.00041074      -0.00341598       0.00353843
Ti       4.40395744       1.76782781       3.19116218       0.00001134       0.00239040      -0.00521103
Ti       1.46796280       1.77221336       3.19543962       0.00012093       0.00311385      -0.00556203
Ti       1.46805417       4.59943263       3.41981444      -0.00021283       0.00050790       0.00204434
Ti       4.40403620       4.60036832       3.42295277      -0.00004306       0.00003864       0.00081561
Ti       5.87104994       6.73446364       4.73601604      -0.00038880      -0.00478767       0.00012568
Ti       2.93696954       6.73449378       4.73597897       0.00038376      -0.00495968       0.00027917
Ti       2.93870686       2.87309397       5.34293527      -0.00017563      -0.00508659       0.00085229
Ti       5.86927172       2.87312088       5.34293448       0.00022902      -0.00535189       0.00079090
Ti       4.40402427       5.00323972       6.50233952      -0.00034899      -0.00246588       0.00334205
Ti       1.46797566       5.00570865       6.49967004       0.00025579      -0.00479221      -0.00347093
Ti       4.40399274       0.93170405       6.99942105      -0.00001162      -0.00355770       0.00311274
Ti       1.46801346       0.93782965       6.98167409       0.00001042      -0.00240894       0.00374652
Ti       2.93199319       3.10084760       8.17442707       0.00001095      -0.00530590      -0.00203439
Ti       0.00402139       3.10081982       8.17442071       0.00000948      -0.00511518      -0.00203692
Ti       2.93729136       6.00748302       8.77745802       0.00615981      -0.00346423      -0.00008045
Ti       5.87066422       6.00748004       8.77741772      -0.00608782      -0.00349203      -0.00001160
Ti       4.40400772       1.26582530       9.96968274      -0.00012466      -0.01721480      -0.00044516
Ti       1.46796134       1.29503959       9.89858179       0.00015899      -0.00672814       0.00479267
Ti       4.40401456       4.08508969      10.43356103      -0.00004370      -0.00153838      -0.00075557
Ti       1.46801065       4.12131204      10.48030486       0.00002900      -0.01337811      -0.00100295
Ti       2.90485165       6.22916929      11.60658902       0.00564089      -0.00800644      -0.00297002
Ti       0.03118220       6.22919805      11.60653038      -0.00552134      -0.00810715      -0.00273060
Ti       2.89658484       2.33813069      12.18624873       0.00058318      -0.00416290      -0.00189477
Ti       0.03942744       2.33814727      12.18621587      -0.00057514      -0.00431797      -0.00147755
Ti       1.46801881       4.50559492      13.49361330       0.00002519      -0.00500932       0.00744334
Ti       4.40402121       4.40578795      13.52823195       0.00001393      -0.00186662       0.00635793
Ti       4.40403387       0.34447193      13.64916602      -0.00001652      -0.01272078      -0.00913594
Zn       1.46804026       0.44462162      13.69156537      -0.00012230      -0.00082413      -0.00802342
Ti       0.02133035       2.38524450      14.97552119       0.00489733      -0.01170999      -0.00782903
Ti       2.91471454       2.38525618      14.97550688      -0.00484735      -0.01173398      -0.00764021
Ti       5.85011388       5.96724373      15.55040670      -0.00056759       0.01351463       0.00275593
Ti       2.95800842       5.96722986      15.55039060       0.00030765       0.01351164       0.00285103
Ti       4.40403954       3.90883848      16.79979915       0.00006130       0.00400741      -0.00412474
Ti       1.46803680       3.96193524      16.74994112       0.00005443      -0.00241571      -0.01103924
Ti       4.40403298       1.07742690      17.11849204      -0.00003434      -0.00954262       0.00491816
Ti       1.46802088       1.10317640      17.15498976       0.00009815      -0.00189180       0.00597096
Ti       5.87123847       5.83999371      18.37956295      -0.00037181       0.00631708       0.00771222
Ti       2.93683410       5.83999973      18.37956491       0.00030449       0.00628912       0.00759584
Ti       2.92351840       2.84433479      18.99001099       0.00206403       0.00913278       0.00584228
Ti       0.01258753       2.84433612      18.99000186      -0.00217042       0.00914834       0.00604606
Ti       4.40401976       0.69466495      20.14533751       0.00010417       0.00935454      -0.00103324
Ti       1.46805656       0.69425679      20.14201612      -0.00011474       0.00841092       0.00011305
Ti       1.46801774       4.75814349      20.65350865       0.00002808       0.00578424       0.00026055
Ti       4.40401060       4.75460147      20.64653583       0.00005601       0.00550244       0.00030854
Ti       2.93634357       2.59400589      21.81994326       0.00014289       0.00309546      -0.00255087
Ti       5.87165643       2.59401101      21.81995856      -0.00009299       0.00306029      -0.00269978
Ti       2.93687062       6.56026859      22.41821043       0.00027653       0.00541634       0.00268028
Ti       5.87115407       6.56026944      22.41821529      -0.00025342       0.00542926       0.00254148
Ti       4.40400346       4.39385856      23.60576152      -0.00001268       0.00359350      -0.00282866
Ti       1.46801076       4.39333678      23.60994023      -0.00011269       0.00515969      -0.00336119
Ti       4.40399107       1.57245782      24.09102507      -0.00000708       0.00518137      -0.00393442
Ti       1.46797435       1.57505565      24.08960952       0.00014372       0.00254264      -0.00276968
Ti       2.93420083       6.33375569      25.24802723      -0.00018328       0.00209996       0.00190480
Ti       0.00179547       6.33374877      25.24800788       0.00019061       0.00210668       0.00203955
Ti       5.87087848       3.28925454      25.86080731       0.00042667       0.00357279      -0.00446854
Ti       2.93710514       3.28924494      25.86080666      -0.00043123       0.00360080      -0.00447525
Ti       1.46798021       1.15885047      27.18488142       0.00002158       0.00430076       0.00315078
Ti       4.40398180       1.16082915      27.18517570       0.00002231       0.00398865       0.00307341
