64
Lattice="5.872 0.0 0.0 0.0 6.890708 0.0 0.0 0.0 27.394398" Properties=species:S:1:pos:R:3:forces:R:3 job_name=T1g-Zr-Zr-38-d-3.19 GB_type=T1g element=Zr system=Zr-38-d-3.19 distance=3.19 energy=-495.58156181 stress_kbar_3x3="_JSON [[-2.40952597, -0.00047645, -0.00164356], [-0.00047648, -3.18737961, 4.27778258], [-0.00164355, 4.27778256, -9.88580721]]" pbc="T T T"
Ti       4.40398628       5.20353718       0.01108401      -0.00012222       0.00045237      -0.00023094
Ti       1.46800164       5.20374470       0.01052401       0.00016349       0.00128719      -0.00078456
Ti       0.00307029       3.18313016       1.29519512      -0.00002384       0.00337720       0.00156927
Ti       2.93287915       3.18319280       1.29503227       0.00017007       0.00324912       0.00207967
Ti       5.87048801       6.61610173       1.90662108      -0.00024068      -0.00360561       0.00394348
Ti       2.93750924       6.61608816       1.90661858       0.00028710      -0.00364180       0.00375379
Ti       4.40400748       1.75066879       3.18388207      -0.00003175      -0.00350919      -0.00141425
Ti       1.46799781       1.74951828       3.18309555       0.00004774      -0.00338032      -0.00148472
Ti       1.46800704       4.58001686       3.40639016       0.00002133      -0.00048886       0.00074375
Ti       4.40401728       4.58014517       3.40615672       0.00000951      -0.00041513       0.00191404
Ti       0.00008541       6.70455342       4.71176651       0.00056987      -0.00261903      -0.00199250
Ti       2.93596030       6.70459235       4.71176250      -0.00052071      -0.00279321      -0.00200658
Ti       2.93473661       2.85322813       5.31319972      -0.00066426      -0.00378132      -0.00040962
Ti       0.00132693       2.85327583       5.31329290       0.00063874      -0.00395252      -0.00076968
Ti       4.40406188       4.97487703       6.46985785       0.00000340      -0.00131842      -0.00057343
Ti       1.46800324       4.97679122       6.46788919       0.00004733      -0.00362846       0.00148650
Ti       4.40401691       0.90440531       6.93722335       0.00014617      -0.00488949      -0.00018842
Ti       1.46807057       0.90224340       6.94338333      -0.00011877      -0.00072445      -0.00064609
Ti       2.93533459       3.04557563       8.11916429      -0.00131825      -0.00296516      -0.00146863
Ti       0.00077008       3.04559294       8.11911813       0.00133642      -0.00299730      -0.00127643
Ti       2.93471863       5.99886617       8.71334048      -0.00095260      -0.00215550      -0.00417216
Ti       0.00137900       5.99879965       8.71323282       0.00097787      -0.00203200      -0.00379129
Ti       4.40403654       1.24618673       9.91611800      -0.00004491       0.00001345       0.00154293
Ti       1.46807394       1.24777119       9.93045272       0.00002487      -0.00356840       0.00323275
Ti       4.40406813       4.05812307      10.33962540       0.00000616      -0.00538872       0.00431254
Ti       1.46804742       4.06386574      10.34804072      -0.00005920      -0.00353217       0.00166255
Ti       2.94517245       6.14804356      11.50465714       0.00013058      -0.00119760       0.00740770
Ti       5.86290471       6.14801104      11.50466576      -0.00008865      -0.00138193       0.00707577
Ti       2.94284947       2.40929846      12.12067346      -0.00076890       0.00106998       0.00468965
Ti       5.86521185       2.40937903      12.12051253       0.00090128       0.00106231       0.00537209
Ti       1.46803500       4.49476583      13.54753014      -0.00011861      -0.00139514      -0.00015142
Ti       4.40406287       4.48106173      13.49878188      -0.00014005      -0.00228867       0.00043129
Ti       4.40404159       0.42280007      13.56457386      -0.00056277      -0.00138737      -0.00119785
Ti       1.46800931       0.43124664      13.50902072       0.00039700      -0.00317707       0.00068307
Ti       0.03471531       2.34968166      14.94374369       0.00204808       0.00032396      -0.00513331
Ti       2.90113653       2.34942239      14.94339572      -0.00161537       0.00058060      -0.00443026
Ti       0.06104109       6.12654559      15.57309206      -0.00208386       0.00436111      -0.00367861
Ti       2.87480317       6.12678295      15.57286328       0.00237864       0.00418435      -0.00355331
Zr       4.40432261       4.00261591      16.81894108      -0.00059795      -0.01485729      -0.00824946
Ti       1.46768492       3.98831721      16.81420950      -0.00040273       0.00444527      -0.00849511
Ti       4.40402994       1.07601070      17.17693689       0.00000544       0.00022961      -0.00350776
Ti       1.46803205       1.17906673      17.20119297      -0.00037474      -0.00501522      -0.00104179
Ti       0.04565300       5.90635748      18.45812953      -0.00247889       0.00503397      -0.00213340
Ti       2.89024311       5.90631439      18.45821570       0.00265298       0.00622125      -0.00155221
Ti       2.90036657       2.85225301      19.08505296       0.00218219       0.00217182      -0.00196890
Ti       0.03547837       2.85230979      19.08477815      -0.00184330       0.00259638      -0.00168513
Ti       4.40403404       0.71265116      20.22249579      -0.00017080       0.00867706      -0.00199696
Ti       1.46798180       0.71462077      20.22891243       0.00002368      -0.00377663       0.00129211
Ti       1.46806959       4.77635795      20.71467207      -0.00019506       0.00785624       0.00248262
Ti       4.40399508       4.76710457      20.68982302       0.00006034      -0.00091309       0.00200261
Ti       2.93736039       2.61057284      21.88481537       0.00291694       0.00213246       0.00076881
Ti       5.87068045       2.61050939      21.88491780      -0.00282123       0.00230718       0.00032941
Ti       2.93844974       6.55226977      22.47526593       0.00150943       0.00472187      -0.00127779
Ti       5.86952812       6.55228774      22.47540673      -0.00137791       0.00487921      -0.00170704
Ti       4.40403244       4.38871239      23.65565161      -0.00010052       0.00238752       0.00145490
Ti       1.46799760       4.39026649      23.66516340       0.00008635       0.00203821      -0.00312197
Ti       4.40406573       1.56450379      24.12894644      -0.00005991       0.00357684      -0.00335208
Ti       1.46797452       1.56232567      24.12536202       0.00007664       0.00276967       0.00179144
Ti       2.93742470       6.32564154      25.28513616      -0.00062669       0.00420073       0.00207838
Ti       5.87059252       6.32569829      25.28495216       0.00064568       0.00407202       0.00261091
Ti       5.87172790       3.27257878      25.88412705       0.00054154       0.00120484       0.00247549
Ti       2.93629098       3.27259360      25.88423902      -0.00049719       0.00123590       0.00209469
Ti       1.46799070       1.14521728      27.20066040       0.00005262       0.00191253       0.00382733
Ti       4.40400129       1.14676158      27.20068333      -0.00003715       0.00214482       0.00433413
