64
Lattice="5.872 0.0 0.0 0.0 6.890708 0.0 0.0 0.0 27.394398" Properties=species:S:1:pos:R:3:forces:R:3 job_name=T1g-Zn-Zn-44-d-5.32 GB_type=T1g element=Zn system=Zn-44-d-5.32 distance=5.32 energy=-488.7567755 stress_kbar_3x3="_JSON [[-13.2621395, 0.00024223, -0.00112555], [0.00024219, -14.16502104, -0.78456902], [-0.00112553, -0.78456903, -18.38561078]]" pbc="T T T"
Ti       4.40803608       5.21018180      27.39061142       0.00027284       0.00044236       0.00368219
Ti       1.46393530       5.21014930      27.39059247      -0.00024821       0.00050836       0.00381586
Ti       5.87194002       3.18046699       1.27320743       0.00004667      -0.00562970       0.00142865
Ti       2.93608638       3.18622902       1.28319047      -0.00005935      -0.00530297      -0.00175070
Ti       0.00006104       6.64082127       1.89637902       0.00001245       0.00521964      -0.00137667
Ti       2.93594301       6.63801997       1.89846104      -0.00004020       0.00470047      -0.00241834
Ti       4.40364946       1.76928573       3.19003063       0.00057898      -0.00070643       0.00007061
Ti       1.46832720       1.76930698       3.19001694      -0.00054664      -0.00072350      -0.00001582
Ti       1.46783127       4.59827243       3.39665352       0.00054060      -0.00134892      -0.00674762
Ti       4.40418027       4.59827035       3.39666974      -0.00053408      -0.00138670      -0.00675135
Ti       0.00001088       6.72289524       4.71230275      -0.00006277       0.00428341      -0.00187256
Ti       2.93596074       6.72299548       4.71456741       0.00011200       0.00343605      -0.00016650
Ti       2.93600194       2.88096165       5.32382757       0.00001176      -0.00054593      -0.00055514
Ti       5.87197326       2.87943762       5.32215742      -0.00001006      -0.00046123       0.00388391
Ti       4.40526603       5.00781532       6.48169081      -0.00208977       0.00183088       0.00825917
Ti       1.46667926       5.00779465       6.48167457       0.00215567       0.00188506       0.00825751
Ti       4.40435218       0.93381152       6.95791794      -0.00111195       0.00406415       0.00570253
Ti       1.46759121       0.93381460       6.95791718       0.00115689       0.00404223       0.00573207
Ti       2.93596571       3.09452550       8.14220996       0.00004288      -0.00040092      -0.00174382
Ti       5.87198670       3.09772315       8.14093043      -0.00002650      -0.00066743      -0.00517595
Ti       2.93597834       6.02544218       8.74096280       0.00007759       0.00720493       0.00121885
Ti       5.87199344       6.02576323       8.74507808       0.00001027       0.00753670      -0.00174670
Ti       4.40611773       1.29791408       9.92635355       0.00156484       0.00104056      -0.00071212
Ti       1.46589929       1.29790223       9.92633366      -0.00164839       0.00112127      -0.00073889
Ti       4.40547665       4.11331401      10.40391724       0.00136138       0.00200386       0.00026571
Ti       1.46653404       4.11331491      10.40392695      -0.00137865       0.00197182       0.00026791
Ti       2.93599771       6.25024581      11.56121104       0.00004538       0.01753172       0.00281984
Ti       0.00003567       6.25519076      11.56728153       0.00003499       0.01769420       0.00496027
Ti       2.93603500       2.38870589      12.16503776      -0.00000366      -0.00952061       0.00891415
Ti       0.00002424       2.38987089      12.18801969      -0.00001274      -0.00881871       0.00544227
Ti       1.46505955       4.53414056      13.47404049      -0.00014315       0.00193484      -0.00961876
Ti       4.40703645       4.53413908      13.47405024       0.00008052       0.00187222      -0.00973252
Ti       4.40766277       0.45633215      13.71938574      -0.00040105       0.01344675       0.00517165
Ti       1.46446823       0.45634900      13.71938966       0.00034459       0.01340193       0.00523522
Ti       0.00001965       2.50309322      14.99906668       0.00006757       0.00414043      -0.00371829
Ti       2.93609974       2.51730859      14.95480293      -0.00001591       0.00245810      -0.00922659
Ti       0.00011488       5.89096219      15.60878314      -0.00002867      -0.00312487      -0.00011304
Ti       2.93604792       5.88187315      15.62619327      -0.00003308      -0.00176340      -0.00271206
Ti       4.37215904       3.86626754      16.92969114      -0.00351752      -0.00050985       0.00886298
Ti       1.49996777       3.86626537      16.92966527       0.00338359      -0.00050422       0.00886476
Ti       4.38422044       1.09203130      17.10300367       0.00100877      -0.00942093      -0.00779608
Ti       1.48786072       1.09202889      17.10300936      -0.00113911      -0.00946792      -0.00770243
Ti       0.00002901       5.86068852      18.40150790       0.00004691      -0.00191092       0.00236170
Ti       2.93600597       5.76081150      18.42245167       0.00001740      -0.00076802       0.00205872
Zn       2.93604266       2.82723869      19.02829912      -0.00006064      -0.00917704       0.01595453
Ti       0.00003366       2.85925788      19.09233010       0.00001246       0.00123991       0.00913830
Ti       4.38678082       0.68861024      20.16244571      -0.00221662      -0.00696440      -0.00325982
Ti       1.48524112       0.68858476      20.16245133       0.00215682      -0.00677374      -0.00320375
Ti       1.44179980       4.72400273      20.65584623      -0.00385758      -0.00251190      -0.00493967
Ti       4.43022778       4.72400056      20.65584581       0.00381637      -0.00248740      -0.00497162
Ti       2.93598721       2.54872265      21.81925069       0.00003883      -0.00340688       0.00773565
Ti      -0.00001913       2.55960231      21.91246763       0.00009936       0.00033634       0.00292306
Ti       2.93599788       6.57482865      22.37344389       0.00005350      -0.00239195      -0.00023051
Ti       5.87198928       6.52294715      22.40891743       0.00004299      -0.00397674       0.00819112
Ti       4.38318021       4.38161657      23.61467950       0.00097323       0.00050824      -0.00187724
Ti       1.48879982       4.38162013      23.61470294      -0.00098461       0.00044845      -0.00191107
Ti       4.38255650       1.54301494      24.09612110      -0.00244707      -0.00449913      -0.00213837
Ti       1.48940457       1.54299652      24.09612568       0.00243154      -0.00440263      -0.00218066
Ti       2.93595273       6.30637054      25.24366054       0.00003411      -0.00001587      -0.00545336
Ti       0.00000334       6.31378948      25.25332409      -0.00002480      -0.00357001      -0.00895541
Ti      -0.00000550       3.27379469      25.84079729      -0.00003736      -0.00159035      -0.01053375
Ti       2.93600020       3.28329087      25.86123117       0.00006217      -0.00186009      -0.00700863
Ti       1.46848032       1.14940966      27.16346972      -0.00047048      -0.00488072      -0.00109591
Ti       4.40357044       1.14941675      27.16347903       0.00045474      -0.00481287      -0.00106748
