64
Lattice="5.872 0.0 0.0 0.0 6.890708 0.0 0.0 0.0 27.394398" Properties=species:S:1:pos:R:3:forces:R:3 job_name=T1g-Zr-Zr-31-d-0.22 GB_type=T1g element=Zr system=Zr-31-d-0.22 distance=0.22 energy=-495.87902673 stress_kbar_3x3="_JSON [[-1.83906116, -0.00166624, -0.00068016], [-0.00166626, -2.49984565, 0.33314081], [-0.00068016, 0.33314079, -8.98942678]]" pbc="T T T"
Ti       4.40410267       5.28273974      27.28405209      -0.00016911      -0.00418264      -0.00170858
Ti       1.46799111       5.28344205      27.28497943      -0.00039525      -0.00767613      -0.00542464
Ti       5.87176953       3.31658037       1.28788802       0.00053492       0.00065563      -0.00295075
Ti       2.93623997       3.31663022       1.28787013      -0.00016754       0.00049774      -0.00294508
Ti       5.87152916       6.51641000       1.89786377      -0.00033765      -0.00556857      -0.00073497
Ti       2.93649433       6.51633131       1.89778674       0.00073320      -0.00506182      -0.00030809
Ti       4.40403458       1.71123991       3.07663726      -0.00020554      -0.00352736      -0.00981105
Ti       1.46805262       1.70991675       3.07881615      -0.00006590      -0.00148345      -0.01092634
Ti       1.46812027       4.53195943       3.47615187      -0.00055500      -0.00401801      -0.00168875
Ti       4.40405088       4.53089497       3.48075725       0.00001509       0.00042428      -0.00257055
Ti       5.87047504       6.68251643       4.69862682       0.00130286      -0.00110987      -0.00786442
Ti       2.93759367       6.68248921       4.69861316      -0.00107327      -0.00075504      -0.00803674
Ti       2.93852877       2.73921278       5.29714048      -0.00300225      -0.00351607      -0.00613438
Ti       5.86952375       2.73915796       5.29704453       0.00326133      -0.00318841      -0.00556276
Ti       4.40401170       4.89375933       6.45153524       0.00001031       0.00077390      -0.00123527
Ti       1.46804472       4.89126970       6.44126644      -0.00026562      -0.00163574       0.00153865
Ti       4.40405189       0.81634537       6.95565656      -0.00011764      -0.00209177       0.00462231
Ti       1.46805528       0.81754673       6.94968812      -0.00003038       0.00151963       0.00461338
Ti       2.92944574       2.97892870       8.11421157      -0.00080872      -0.00028639       0.00217688
Ti       0.00656267       2.97889324       8.11422900       0.00091418      -0.00014837       0.00169666
Ti       2.93322569       5.89803904       8.70407580       0.00082546      -0.00001234       0.00385034
Ti       0.00282020       5.89806075       8.70404997      -0.00078138      -0.00026370       0.00395183
Ti       4.40402882       1.17490333       9.90968673      -0.00013872      -0.00031363      -0.00454147
Ti       1.46799086       1.17323913       9.88647929       0.00007918       0.00544201       0.00586399
Ti       4.40401723       3.98238566      10.33836330      -0.00007084      -0.00216272      -0.00391202
Ti       1.46796728       3.97893275      10.38370615       0.00007719      -0.00064623       0.01360271
Ti       2.93761561       6.11483768      11.49388304      -0.00711916       0.00434459      -0.00497890
Ti       5.87034436       6.11483748      11.49390456       0.00718810       0.00452003      -0.00564259
Ti       2.88627904       2.26503477      12.12005185      -0.00663526      -0.00157142      -0.00205670
Ti       0.04974399       2.26510792      12.12008132       0.00674730      -0.00208793      -0.00214776
Ti       1.46807411       4.37013358      13.57858409       0.00071666       0.00163226      -0.00101800
Zr       4.40421566       4.39262795      13.57968885      -0.00092038       0.00246379       0.00112568
Ti       4.40401413       0.41021285      13.58004839      -0.00007689       0.00615459       0.00143368
Ti       1.46790126       0.30488444      13.57977584       0.00011758       0.00544487      -0.00274916
Ti       0.05027930       2.26133229      15.03848403       0.00316048       0.00248644       0.00093277
Ti       2.88576777       2.26126658      15.03850925      -0.00332248       0.00312678       0.00085526
Ti       5.87136926       6.10789316      15.66441426       0.00332445      -0.00128124       0.00190717
Ti       2.93663484       6.10790627      15.66442035      -0.00339981      -0.00153345       0.00131025
Ti       4.40398965       3.97246796      16.82302285      -0.00013525       0.00519408      -0.00730068
Ti       1.46791671       3.97010747      16.77378235       0.00040086      -0.00007608      -0.00577158
Ti       4.40402705       1.16343095      17.24810675      -0.00014966      -0.00130879      -0.00369003
Ti       1.46799663       1.16291222      17.27006710       0.00007299       0.00232184      -0.00672196
Ti       0.00335083       5.88475321      18.45362882      -0.00307086      -0.00225778      -0.00193001
Ti       2.93258292       5.88476741      18.45357580       0.00321396      -0.00235900      -0.00151954
Ti       2.92903652       2.96257606      19.04288858      -0.00080905       0.00243438       0.00578792
Ti       0.00688158       2.96256341      19.04288612       0.00092809       0.00237116       0.00611315
Ti       4.40394483       0.79701303      20.20093031       0.00005090       0.00675680       0.00373802
Ti       1.46797735       0.79900067      20.20682757      -0.00008050       0.00583043      -0.00285174
Ti       1.46795648       4.87132372      20.71623704       0.00010292       0.00111189       0.00191224
Ti       4.40398008       4.87369650      20.70642398      -0.00014523       0.00037346       0.00095542
Ti       2.93805922       2.71569254      21.86273583       0.00008937      -0.00011032       0.00183865
Ti       5.86990480       2.71568465      21.86277191      -0.00005854      -0.00017494       0.00177608
Ti       2.93747073       6.66666757      22.45988320      -0.00123971       0.00399813       0.00484778
Ti       5.87046863       6.66665372      22.45987245       0.00134290       0.00399792       0.00467277
Ti       4.40399973       4.51243972      23.66913926      -0.00002628       0.00217569       0.00323651
Ti       1.46803130       4.51341102      23.67291565      -0.00015683      -0.00025158       0.00453815
Ti       4.40399087       1.69356075      24.09133906      -0.00007087       0.00157489       0.00856999
Ti       1.46800091       1.69330000      24.08934063      -0.00001575      -0.00294652       0.01159694
Ti       2.93620359       6.49171407      25.26011956      -0.00012018      -0.00053433       0.00519956
Ti       5.87176023       6.49172731      25.26002720       0.00052757      -0.00066947       0.00566160
Ti       0.00014315       3.32236131      25.86907745      -0.00025662      -0.00250701       0.00284227
Ti       2.93588084       3.32240036      25.86908522       0.00047913      -0.00266998       0.00264268
Ti       1.46807325       1.23399216      27.26940605      -0.00026951      -0.00361367       0.00035226
Ti       4.40405028       1.23373180      27.26994879       0.00004665      -0.00402545      -0.00102905
