64
Lattice="5.872 0.0 0.0 0.0 6.890708 0.0 0.0 0.0 27.394398" Properties=species:S:1:pos:R:3:forces:R:3 job_name=T1g-V-V-31-d-0.22 GB_type=T1g element=V system=V-31-d-0.22 distance=0.22 energy=-495.72293813 stress_kbar_3x3="_JSON [[-12.38561539, -0.00056294, 0.00134933], [-0.00056294, -14.24132493, -3.05492798], [0.00134929, -3.05492794, -19.95227963]]" pbc="T T T"
Ti       4.40394584       5.19850333      27.38876847       0.00036629      -0.00492670       0.00806547
Ti       1.46807458       5.20015425      27.38801866      -0.00041678      -0.00390993       0.00451407
Ti       0.00205263       3.17523243       1.28713985       0.00033066      -0.00851518       0.00020441
Ti       2.93380315       3.17523885       1.28714747      -0.00015293      -0.00854986      -0.00012861
Ti       5.86879478       6.62276848       1.90941823       0.00163856       0.01261827       0.00062888
Ti       2.93916561       6.62278850       1.90930066      -0.00165850       0.01271659       0.00126164
Ti       4.40388229       1.76005292       3.20543010       0.00021947       0.00206162       0.00025647
Ti       1.46795188       1.76087196       3.20350968       0.00009648      -0.00622907       0.00755040
Ti       1.46793434       4.58761527       3.41672336       0.00009193       0.00260430      -0.01275108
Ti       4.40394425       4.58788340       3.41088588       0.00010063       0.00023571      -0.00377038
Ti       0.00123135       6.71978187       4.73389429      -0.00706946      -0.00441855      -0.00923614
Ti       2.93466847       6.71970324       4.73380025       0.00692682      -0.00394295      -0.00889501
Ti       2.93343331       2.87726509       5.34247175       0.00056066       0.00756049      -0.00377551
Ti       0.00247466       2.87726792       5.34237449      -0.00065507       0.00757358      -0.00321479
Ti       4.40398154       5.00724274       6.50627235      -0.00008851       0.00513199      -0.00489237
Ti       1.46800191       5.00907653       6.51365929      -0.00010299       0.01085483      -0.00792521
Ti       4.40388998       0.93617118       6.97429308       0.00003074       0.01596854       0.00288739
Ti       1.46791302       0.93799679       6.97758645       0.00024725      -0.00092274       0.00065743
Ti       2.93933896       3.10203675       8.16683982       0.00615376       0.00808697      -0.00581778
Ti       5.86852922       3.10201147       8.16679094      -0.00607426       0.00815221      -0.00559714
Ti       2.93768976       6.04878603       8.76861904       0.00140777       0.00576069      -0.00224723
Ti       5.87025438       6.04878165       8.76851075      -0.00148829       0.00582745      -0.00240405
Ti       4.40387537       1.31392448       9.94667198       0.00040901       0.01374890      -0.00694783
Ti       1.46793153       1.31113177       9.95992927       0.00006572       0.00730118       0.00502213
Ti       4.40396724       4.15352414      10.42929707       0.00005950      -0.00148975       0.00883219
Ti       1.46809614       4.15724695      10.39638432      -0.00081480       0.00078871       0.00579990
Ti       2.93518590       6.27979198      11.61841060      -0.00455021       0.00646071       0.00286441
Ti       0.00072086       6.27984027      11.61819037       0.00497312       0.00627781       0.00296321
Ti       2.97078522       2.45828475      12.17271033       0.01588562       0.00443854       0.00448296
Ti       5.83722032       2.45826024      12.17274258      -0.01577360       0.00401180       0.00434948
Ti       1.46789670       4.60001072      13.42557975       0.00029073       0.00094062       0.01371901
V        4.40442933       4.57340980      13.42159289      -0.00028187      -0.00917336       0.01245815
Ti       4.40411611       0.48433396      13.78618804      -0.00055051      -0.00379010      -0.01090699
Ti       1.46787624       0.57120909      13.77002383       0.00022558       0.01449175      -0.01211346
Ti       5.81105416       2.64726606      14.94835579       0.00241864      -0.00527535      -0.01077473
Ti       2.99721856       2.64720799      14.94826468      -0.00249671      -0.00525843      -0.01050689
Ti      -0.00502059       5.82823048      15.54469272      -0.00043519       0.00340618      -0.00202341
Ti       2.94107416       5.82822562      15.54451519       0.00090390       0.00395674      -0.00217158
Ti       4.40406019       3.88596047      16.96631611      -0.00027116       0.00139602       0.00259052
Ti       1.46817410       3.87508831      16.93366484      -0.00015694      -0.00226279       0.00032537
Ti       4.40426614       1.04157274      16.99432954      -0.00078497       0.00132469       0.00217007
Ti       1.46812945       1.03849488      17.00568534       0.00028577      -0.00691587       0.00978027
Ti       0.01397717       5.84139192      18.39666720      -0.00973601       0.00491043      -0.00398026
Ti       2.92225813       5.84124926      18.39656982       0.00954621       0.00542156      -0.00453805
Ti       2.93744034       2.72617275      19.01070272       0.00629942      -0.00341330      -0.00663050
Ti       5.87062730       2.72615811      19.01071889      -0.00610867      -0.00362297      -0.00689671
Ti       4.40396228       0.62421280      20.17370019       0.00037817      -0.00435915       0.00347469
Ti       1.46817784       0.62155626      20.17720881      -0.00065664      -0.00513820       0.00170402
Ti       1.46805842       4.70328605      20.62657803      -0.00011002      -0.00999766      -0.00388742
Ti       4.40387026       4.70325946      20.61341913       0.00071334      -0.00464958       0.00891541
Ti       2.93731199       2.55719106      21.82170001      -0.00064728      -0.00879224       0.00428882
Ti      -0.00115755       2.55721777      21.82162116       0.00009461      -0.00872763       0.00453889
Ti       2.93540420       6.50379384      22.42493237       0.00021321      -0.00905772       0.00120678
Ti       0.00056224       6.50375253      22.42473679      -0.00013809      -0.00879624       0.00161465
Ti       4.40395754       4.35272801      23.60759152       0.00034020      -0.00928021       0.00853619
Ti       1.46793309       4.35342563      23.61391659       0.00026056      -0.01317777      -0.00163867
Ti       4.40410688       1.54013795      24.08371249      -0.00008024      -0.00537340       0.00572181
Ti       1.46803949       1.53882087      24.08409706       0.00002194      -0.00443098       0.00066444
Ti       2.93799430       6.30253455      25.24475729       0.00029019      -0.00226639       0.00335430
Ti       5.87007968       6.30236567      25.24464198      -0.00037938      -0.00154913       0.00358367
Ti       0.00070220       3.26118808      25.86069624      -0.00266672      -0.00512222       0.00337433
Ti       2.93534760       3.26116326      25.86066841       0.00258621      -0.00503702       0.00344888
Ti       1.46797906       1.13199444      27.17454606      -0.00010587       0.00289388       0.00151710
Ti       4.40400040       1.13200378      27.17487840       0.00001902       0.00144971      -0.00365599
