64
Lattice="5.872 0.0 0.0 0.0 6.890708 0.0 0.0 0.0 27.394398" Properties=species:S:1:pos:R:3 job_name=T1g-Zn-Zn-47-d-6.48 GB_type=T1g element=Zn system=Zn-47-d-6.48 distance=6.48 energy=-488.90301624 pbc="T T T"
Ti       4.40400369       5.12343696       0.08569512
Ti       1.46797597       5.12724891       0.08771977
Ti       5.86959359       3.02917211       1.26255943
Ti       2.93839530       3.02919485       1.26252699
Ti       5.87189506       6.75963141       1.87581742
Ti       2.93609709       6.75957746       1.87582197
Ti       4.40394294       1.82114082       3.30955584
Ti       1.46802295       1.82352181       3.30622993
Ti       1.46801260       4.66157831       3.28912440
Ti       4.40402444       4.66225050       3.28740978
Ti       0.00312710       6.74631522       4.71014772
Ti       2.93289450       6.74635528       4.71011388
Ti       2.93574990       3.05548933       5.33209986
Ti       0.00027895       3.05550385       5.33214791
Ti       4.40406328       5.13958593       6.52103576
Ti       1.46792236       5.14034718       6.52021757
Ti       4.40404019       1.07079360       6.91681394
Ti       1.46800156       1.07012701       6.91827901
Ti       2.93656580       3.22233322       8.14588612
Ti      -0.00052629       3.22230461       8.14586082
Ti       2.93600011       6.17724015       8.75246666
Ti       0.00006559       6.17721676       8.75244294
Ti       4.40404207       1.44109227       9.90946316
Ti       1.46800505       1.44392282       9.91107990
Ti       4.40403833       4.26157422      10.41812154
Ti       1.46800579       4.26266785      10.41846576
Ti       2.93659879       6.42392891      11.58550878
Ti       5.87146711       6.42391735      11.58546277
Ti       2.93501674       2.47255932      12.18829028
Ti       0.00105686       2.47256393      12.18831609
Ti       1.46801861       4.63549491      13.39190033
Ti       4.40398947       4.63082040      13.39072667
Ti       4.40399603       0.57327465      13.83529983
Ti       1.46803303       0.56842329      13.84193222
Ti       0.01188670       2.67806290      14.99902901
Ti       2.92414748       2.67804144      14.99902058
Ti       5.86967807       5.81623938      15.61695369
Ti       2.93839759       5.81624590      15.61694307
Ti       4.40397780       3.85891023      17.08133211
Ti       1.46804851       3.87279744      17.10938643
Ti       4.40400697       1.02832902      16.97445102
Ti       1.46803223       1.03831083      16.98289000
Ti       5.83311095       5.82946926      18.45942651
Ti       2.97490770       5.82941673      18.45937992
Ti       2.91251084       2.55046139      19.04006236
Ti       0.02350329       2.55044237      19.04013175
Ti       4.40408159       0.45248716      20.21978117
Zn       1.46793142       0.52161758      20.19877775
Ti       1.46802937       4.60499759      20.61687198
Ti       4.40405292       4.51481862      20.60236536
Ti       2.89427204       2.40578361      21.81913644
Ti       0.04172607       2.40585587      21.81901608
Ti       2.91536741       6.38514523      22.39769582
Ti       0.02061514       6.38516318      22.39754450
Ti       4.40400233       4.23116064      23.57876171
Ti       1.46802186       4.24913108      23.53273360
Ti       4.40395623       1.40120434      24.06563820
Ti       1.46803678       1.42547785      24.12374744
Ti       2.93618622       6.14376300      25.23241707
Ti       5.87178192       6.14370956      25.23245354
Ti       0.00485165       3.21658397      25.83800091
Ti       2.93112517       3.21652403      25.83792060
Ti       1.46798031       1.05977521      27.06244163
Ti       4.40400479       1.05531879      27.04541487
