64
Lattice="5.872 0.0 0.0 0.0 6.890708 0.0 0.0 0.0 27.394398" Properties=species:S:1:pos:R:3:forces:R:3 job_name=T1g-Zn-Zn-35-d-1.29 GB_type=T1g element=Zn system=Zn-35-d-1.29 distance=1.29 energy=-488.78082841 stress_kbar_3x3="_JSON [[-11.40094174, -0.00010676, -5.494e-05], [-0.00010676, -15.37908252, 0.95009362], [-5.495e-05, 0.95009363, -17.08564619]]" pbc="T T T"
Ti       4.40342065       5.21546060      -0.00228247       0.00019486       0.00080408      -0.00844681
Ti       1.46859931       5.21543914      -0.00227173      -0.00019661       0.00078681      -0.00843453
Ti       5.87197613       3.18849708       1.28803200       0.00004986       0.00131900      -0.00136085
Ti       2.93600039       3.18849532       1.28863129      -0.00004970      -0.00016377       0.00252454
Ti       0.00001075       6.63448176       1.90958794       0.00001440      -0.00088801       0.00155588
Ti       2.93593642       6.63513435       1.90315396      -0.00002589       0.00266734       0.00017827
Ti       4.41190962       1.76940837       3.19459229       0.00100157       0.00334053       0.00682949
Ti       1.46008874       1.76946001       3.19463365      -0.00101890       0.00334330       0.00682433
Ti       1.46443679       4.59932076       3.40923501       0.00141877      -0.00369053       0.00558224
Ti       4.40731833       4.59930435       3.40927167      -0.00132397      -0.00370916       0.00557310
Ti      -0.00004590       6.72867485       4.73140316       0.00001094      -0.00031983       0.00062223
Ti       2.93596127       6.72528580       4.71896351       0.00000411      -0.00113214       0.00322773
Ti       2.93596438       2.87769307       5.31781503       0.00001803      -0.00170394       0.00277448
Ti       5.87191937       2.87529857       5.34618084       0.00004447      -0.00172338      -0.00411006
Ti       4.39692527       5.00242688       6.48400536      -0.00240432      -0.00091604      -0.00132184
Ti       1.47508753       5.00243643       6.48403814       0.00236701      -0.00091534      -0.00134742
Ti       4.40037052       0.93438419       6.96854161       0.00046043       0.00058493       0.00029503
Ti       1.47153395       0.93442789       6.96851685      -0.00045649       0.00054535       0.00029805
Ti       2.93597092       3.10254882       8.14282661       0.00006196      -0.00301373      -0.00373532
Ti      -0.00002473       3.08551241       8.17799756      -0.00002309      -0.00241447      -0.00330114
Ti       2.93599703       6.00341292       8.76092388      -0.00000126       0.00295374       0.00010715
Ti      -0.00001061       6.01795402       8.72493204       0.00000732      -0.00007235      -0.00102827
Ti       4.38244128       1.26358076       9.92015041      -0.00253642      -0.00176445       0.00334639
Ti       1.48959220       1.26354830       9.92016910       0.00254651      -0.00174728       0.00331318
Ti       4.36759097       4.10930776      10.40560755      -0.00389478       0.00412832       0.00582237
Ti       1.50444565       4.10929253      10.40559880       0.00389156       0.00410486       0.00583833
Ti       2.93608485       6.29227862      11.63816267       0.00006376      -0.00188338       0.00159929
Ti       0.00007647       6.21998679      11.57177173      -0.00009904       0.00352969       0.00655958
Ti       2.93599252       2.33373638      12.18492763       0.00005057      -0.00222226      -0.00311608
Ti       0.00000272       2.34927225      12.09019469      -0.00004885      -0.00520528       0.00400746
Ti       1.43790386       4.48722926      13.44072608      -0.00766511       0.00497130      -0.00248429
Ti       4.43406291       4.48729940      13.44067339       0.00768086       0.00497786      -0.00242722
Ti       4.44478055       0.47372920      13.72450808       0.00093712       0.00401184      -0.00125182
Ti       1.42739874       0.47373554      13.72448312      -0.00096451       0.00409833      -0.00124279
Ti       0.00004237       2.53974883      14.90653285      -0.00004193      -0.00560777       0.00425685
Zn       2.93609046       2.49241353      14.99685014      -0.00010215       0.00151550      -0.01058266
Ti       0.00003091       5.87941786      15.61720909      -0.00013816       0.00206004      -0.00651392
Ti       2.93611766       5.88944172      15.58359441       0.00011346      -0.00993039      -0.00257092
Ti       4.36857874       3.86629859      16.89161380       0.00151901      -0.00589092       0.00372213
Ti       1.50365617       3.86629957      16.89156934      -0.00158255      -0.00588694       0.00386714
Ti       4.40378251       1.08838553      17.10068910       0.00088443       0.00068244      -0.00191209
Ti       1.46816676       1.08835609      17.10070836      -0.00080513       0.00068334      -0.00187888
Ti       0.00000551       5.83766608      18.40229317       0.00005251       0.00412138      -0.00579137
Ti       2.93605413       5.83628975      18.38278729      -0.00004850       0.00727964      -0.00663448
Ti       2.93606563       2.83897230      19.05573435      -0.00004862      -0.00703407      -0.00471624
Ti       0.00010972       2.83002688      19.02260816       0.00002213      -0.00906472      -0.00716952
Ti       4.40312179       0.66864025      20.16020756      -0.00138274       0.00069297       0.00022584
Ti       1.46894602       0.66864917      20.16017564       0.00141932       0.00069120       0.00013966
Ti       1.47002433       4.76816711      20.66063543       0.00082751      -0.00152297       0.00170432
Ti       4.40208431       4.76816096      20.66064224      -0.00084691      -0.00156660       0.00173739
Ti       2.93600984       2.58567013      21.84130228      -0.00000204      -0.00150754       0.00455612
Ti       0.00002986       2.58413388      21.82405935       0.00000520       0.00147981       0.00543104
Ti       2.93602734       6.55521346      22.44084872      -0.00000509      -0.00085813       0.00395381
Ti       0.00005037       6.55941339      22.43341885      -0.00000935      -0.00236861       0.00603279
Ti       4.40581004       4.38173425      23.62370208       0.00084641       0.00463116       0.00244837
Ti       1.46613605       4.38169956      23.62370022      -0.00085185       0.00464741       0.00249172
Ti       4.40702082       1.57124102      24.09552843       0.00090055       0.00038353       0.00179220
Ti       1.46505203       1.57126765      24.09553913      -0.00089315       0.00036245       0.00186710
Ti       2.93602438       6.32520440      25.25670151      -0.00010974       0.00249916      -0.00009725
Ti       0.00005094       6.32232088      25.25483031       0.00007578       0.00528439      -0.00121987
Ti      -0.00007474       3.28280069      25.87002648       0.00015112       0.00085265      -0.00483983
Ti       2.93594919       3.28023670      25.86813094      -0.00003982       0.00132385      -0.00259713
Ti       1.46745251       1.14995477      27.17844560      -0.00021448      -0.00032534      -0.00549233
Ti       4.40451142       1.14996999      27.17847895       0.00018956      -0.00030887      -0.00548068
