64
Lattice="5.872 0.0 0.0 0.0 6.890708 0.0 0.0 0.0 27.394398" Properties=species:S:1:pos:R:3:forces:R:3 job_name=T1g-Zr-Zr-45-d-5.32 GB_type=T1g element=Zr system=Zr-45-d-5.32 distance=5.32 energy=-495.67081423 stress_kbar_3x3="_JSON [[-2.59084631, -0.00063207, -0.00016682], [-0.00063211, -2.58705367, 0.3099402], [-0.00016681, 0.3099402, -10.4045168]]" pbc="T T T"
Ti       4.40687712       5.21347069       0.01849435       0.00123821      -0.00063163       0.00493148
Ti       1.46505843       5.21342365       0.01850099      -0.00124582      -0.00060731       0.00506899
Ti       5.87191974       3.18933025       1.29399621      -0.00009691      -0.00115649      -0.00006516
Ti       2.93606195       3.19068167       1.30527042       0.00002262      -0.00007999       0.00289610
Ti       0.00004284       6.63419731       1.91562366       0.00000206       0.00149594      -0.00848675
Ti       2.93585079       6.63521201       1.91691130       0.00017014      -0.00010362      -0.00779275
Ti       4.40752267       1.76729868       3.19665329       0.00163197       0.00154865      -0.00946505
Ti       1.46436635       1.76734223       3.19666246      -0.00153529       0.00144980      -0.00937848
Ti       1.46666041       4.59801150       3.41069614      -0.00098987      -0.00250828      -0.00875954
Ti       4.40524765       4.59801232       3.41070521       0.00097723      -0.00264892      -0.00878033
Ti       5.87195808       6.72430474       4.72216032       0.00001578       0.00174304      -0.00765122
Ti       2.93592092       6.72444991       4.72310856      -0.00002662       0.00118979      -0.00477086
Ti       2.93595256       2.87708964       5.32534085       0.00004059      -0.00081619      -0.00219912
Ti       5.87190374       2.87742683       5.32528474       0.00003233      -0.00116702      -0.00181097
Ti       4.40186271       5.00479021       6.48096587       0.00267721       0.00179706       0.00243945
Ti       1.47000850       5.00477183       6.48097938      -0.00252826       0.00186528       0.00229367
Ti       4.40299336       0.93429464       6.95711899       0.00151896      -0.00137507       0.00317632
Ti       1.46887002       0.93430341       6.95712314      -0.00154485      -0.00141498       0.00318826
Ti       2.93595011       3.09353315       8.13948679       0.00002897      -0.00256983       0.00632215
Ti       5.87195830       3.09227054       8.13540437      -0.00001634       0.00068603       0.00463190
Ti       2.93594787       6.02184953       8.73904566       0.00002382       0.00037526       0.00245476
Ti       5.87196765       6.02422490       8.72542387      -0.00005875       0.00055814       0.00939157
Ti       4.40800684       1.29124501       9.91287249       0.00127512      -0.00067011       0.00228330
Ti       1.46399029       1.29125375       9.91288083      -0.00123507      -0.00073026       0.00221867
Ti       4.40354129       4.11147601      10.38819310       0.00263064      -0.00057554       0.00140610
Ti       1.46840163       4.11147880      10.38821659      -0.00268833      -0.00047915       0.00130129
Ti       2.93601456       6.23533377      11.55575423       0.00000826       0.00023377       0.00069458
Ti       0.00002293       6.23870963      11.53280893      -0.00005397       0.00021267       0.00310451
Ti       2.93601057       2.39449018      12.12664939       0.00016985      -0.00223506       0.00153282
Ti       0.00000749       2.39264764      12.16080579      -0.00002589      -0.00052944       0.00151521
Ti       1.45575613       4.51597245      13.46275308       0.00112803       0.00209560      -0.00029033
Ti       4.41634322       4.51596776      13.46274808      -0.00107310       0.00200474      -0.00034911
Ti       4.44667008       0.45589353      13.66560028      -0.00059441       0.00169475      -0.00147187
Ti       1.42539596       0.45591298      13.66559800       0.00074285       0.00149744      -0.00147259
Ti       0.00008395       2.49240907      14.97544137      -0.00004902      -0.00112399       0.00008546
Ti       2.93609497       2.45297498      14.91774118       0.00005946      -0.00253260      -0.00685531
Ti       0.00006686       5.92460710      15.59997386       0.00012814       0.00010561       0.00168186
Ti       2.93607917       5.95935738      15.54386639       0.00003625       0.00163488      -0.00354083
Ti       4.33510974       3.92121705      16.80402682       0.00260945      -0.00227893      -0.00125928
Ti       1.53717750       3.92123018      16.80392918      -0.00238876      -0.00195123      -0.00127780
Ti       4.35670234       1.05013671      17.04332245       0.00295118       0.00122515      -0.00024535
Ti       1.51549269       1.05013231      17.04329317      -0.00297645       0.00116026      -0.00027167
Ti       0.00004897       5.89091405      18.43470217       0.00009890      -0.00471741       0.00176941
Ti       2.93602800       5.81712534      18.38306656      -0.00001349       0.00096457       0.00292499
Ti       2.93626319       2.78173265      18.99216931      -0.00003554      -0.00001264      -0.00145604
Zr       0.00039886       2.78087108      18.99358567      -0.00137072       0.00606908       0.00615580
Ti       4.36032282       0.62533207      20.22902284       0.00037116       0.00008410       0.00325340
Ti       1.51187289       0.62526427      20.22902074      -0.00064762      -0.00006094       0.00309884
Ti       1.48624571       4.76895092      20.70037519       0.00159832      -0.00046811      -0.00106545
Ti       4.38591396       4.76891927      20.70029656      -0.00155360      -0.00063179      -0.00105725
Ti       2.93596538       2.57434649      21.84586442       0.00013285      -0.00001829      -0.00125542
Ti      -0.00002114       2.58211660      21.91164775      -0.00003016      -0.00047460       0.00047912
Ti       2.93602086       6.54996629      22.49876098      -0.00002677      -0.00203155       0.00286257
Ti      -0.00001021       6.53724279      22.47382474       0.00011456      -0.00106105       0.00214973
Ti       4.39801977       4.37551443      23.65444799       0.00043855      -0.00125216      -0.00264495
Ti       1.47391085       4.37550165      23.65447404      -0.00028358      -0.00133303      -0.00268808
Ti       4.39533023       1.56626990      24.12777661      -0.00061208       0.00334482      -0.00009911
Ti       1.47661967       1.56625828      24.12777765       0.00065530       0.00337048      -0.00000133
Ti       2.93594722       6.32174404      25.29244314       0.00005410       0.00024192       0.00112121
Ti      -0.00001030       6.32141343      25.27787036       0.00015995       0.00457267      -0.00138655
Ti       5.87195124       3.27958567      25.88040456      -0.00015321       0.00023253       0.00025483
Ti       2.93599546       3.27944205      25.89879715       0.00002057       0.00023640       0.00416331
Ti       1.46678976       1.15228754      27.19825367      -0.00049087      -0.00173605       0.00349602
Ti       4.40517272       1.15231473      27.19825139       0.00058194      -0.00170714       0.00350089
