64
Lattice="5.872 0.0 0.0 0.0 6.890708 0.0 0.0 0.0 27.394398" Properties=species:S:1:pos:R:3:forces:R:3 job_name=T1g-Al-Al-41-d-3.41 GB_type=T1g element=Al system=Al-41-d-3.41 distance=3.41 energy=-491.93872507 stress_kbar_3x3="_JSON [[-10.05457767, 9.898e-05, -0.00033187], [9.9e-05, -9.54175332, 2.05244027], [-0.00033185, 2.05244027, -20.94536771]]" pbc="T T T"
Ti       4.40404316       5.20719065      27.37994553       0.00006077      -0.00104006      -0.00186840
Ti       1.46793768       5.20934134      27.38015032      -0.00003901      -0.00029290      -0.00081870
Ti       0.00300819       3.18529372       1.27641560      -0.00023393       0.00058296       0.00121115
Ti       2.93294669       3.18527179       1.27645222       0.00015877       0.00077199       0.00119508
Ti       5.86991816       6.63054660       1.89858766      -0.00012051      -0.00225007       0.00354615
Ti       2.93806425       6.63053801       1.89862869       0.00005612      -0.00224417       0.00347966
Ti       4.40395244       1.76496399       3.19309622      -0.00000710      -0.00298044       0.00126793
Ti       1.46799647       1.76558978       3.19385894       0.00006040      -0.00406917       0.00048542
Ti       1.46799108       4.59346959       3.40736919      -0.00000847      -0.00146825       0.00281050
Ti       4.40394946       4.59351846       3.40564840       0.00002846      -0.00178718       0.00261455
Ti       5.87146344       6.72168081       4.72272450      -0.00049634      -0.00405685      -0.00113545
Ti       2.93650991       6.72170409       4.72270311       0.00044257      -0.00414016      -0.00115752
Ti       2.93452270       2.87030892       5.33727266       0.00025942      -0.00260481      -0.00055593
Ti       0.00142199       2.87031965       5.33725811      -0.00029085      -0.00252986      -0.00055691
Ti       4.40399012       4.99791290       6.49468565       0.00001615      -0.00453730      -0.00274181
Ti       1.46798305       4.99927725       6.49514319      -0.00005322      -0.00293186      -0.00204288
Ti       4.40398000       0.92436888       6.97215693      -0.00000847      -0.00318126      -0.00367303
Ti       1.46797522       0.92426526       6.97741016       0.00000182      -0.00238830      -0.00266861
Ti       2.93684485       3.07796361       8.16222550       0.00090058      -0.00136278      -0.00158651
Ti       5.87112116       3.07795377       8.16224589      -0.00082638      -0.00128389      -0.00165380
Ti       2.93465672       6.01159404       8.76418844      -0.00084547      -0.00639823      -0.00196648
Ti       0.00134815       6.01162377       8.76425052       0.00090106      -0.00666119      -0.00208989
Ti       4.40404007       1.26741753       9.94044212      -0.00003462      -0.00493208      -0.00002702
Ti       1.46800987       1.27249986       9.95373530       0.00003931      -0.00313168      -0.00057848
Ti       4.40404487       4.09150752      10.41592072      -0.00006626      -0.00078818      -0.00261910
Ti       1.46801333       4.09546492      10.43134235       0.00000174      -0.00301932      -0.00347371
Ti       2.92797538       6.20776725      11.58538971      -0.00194871      -0.00668942      -0.00077037
Ti       0.00811979       6.20785729      11.58540388       0.00192849      -0.00702209      -0.00067349
Ti       2.95058256       2.38163762      12.19172724       0.00081279      -0.00150972       0.00300029
Ti       5.85749301       2.38161990      12.19172382      -0.00072447      -0.00147864       0.00292687
Ti       1.46810904       4.47686188      13.56707316      -0.00011572      -0.00607532       0.00509509
Ti       4.40407451       4.48807560      13.51619209       0.00004900      -0.00792979       0.00528136
Ti       4.40397701       0.42557171      13.68913814      -0.00004508      -0.00076391      -0.01041288
Ti       1.46812288       0.44622460      13.69249109      -0.00015794      -0.00118196      -0.01362728
Ti       5.82409852       2.45170450      15.01821561      -0.00340835       0.00077629      -0.00412490
Ti       2.98391318       2.45179372      15.01839362       0.00343448       0.00065105      -0.00437158
Ti       0.05865597       5.99347490      15.62834667       0.00336177       0.00366305       0.00764481
Ti       2.87746032       5.99348920      15.62841586      -0.00331688       0.00351437       0.00786205
Ti       4.40415528       4.00919634      16.81493889      -0.00008141       0.00245072      -0.00425370
Ti       1.46782757       3.87773677      16.83810791      -0.00004193       0.01669688      -0.00568931
Ti       4.40394597       1.14547375      17.17155686       0.00008565      -0.00062947       0.00661847
Al       1.46805837       1.09171152      17.11805091       0.00024025       0.00609960       0.01012444
Ti       0.02845831       5.87239639      18.39782031      -0.00010902       0.00293204      -0.00476799
Ti       2.90759500       5.87245503      18.39782209       0.00010565       0.00295402      -0.00466404
Ti       2.95839130       2.82315834      18.97665398      -0.00019466       0.00823843       0.00214146
Ti       5.84965248       2.82319227      18.97666179       0.00010552       0.00829185       0.00240269
Ti       4.40402159       0.68392847      20.20236191      -0.00010413       0.00491030      -0.00121745
Ti       1.46803379       0.68706999      20.14173084       0.00009128       0.00461988      -0.00170558
Ti       1.46801982       4.75064543      20.60625982      -0.00010826       0.00441898      -0.00262134
Ti       4.40403903       4.74535390      20.62665690       0.00007043       0.00253412       0.00099977
Ti       2.92535178       2.58899933      21.81226503       0.00422187      -0.00003265       0.00100684
Ti       0.01067044       2.58903330      21.81232218      -0.00409858       0.00001362       0.00089214
Ti       2.92528438       6.53786801      22.41146850      -0.00092767       0.00435274      -0.00037304
Ti       0.01077899       6.53783433      22.41143897       0.00096948       0.00429204      -0.00044218
Ti       4.40404195       4.37684145      23.61084644      -0.00003766       0.00393572       0.00041024
Ti       1.46801323       4.38177588      23.59750164      -0.00000369       0.00221963       0.00429355
Ti       4.40400564       1.55345476      24.07227639      -0.00007210       0.00371086      -0.00336521
Ti       1.46805858       1.55849409      24.07907558      -0.00012393      -0.00176397       0.00438873
Ti       2.93897210       6.32043664      25.23716315      -0.00017916       0.00295749       0.00110255
Ti       5.86903248       6.32043908      25.23714612       0.00025819       0.00291489       0.00117820
Ti       0.00031387       3.27431365      25.84727610       0.00008251       0.00129806       0.00370454
Ti       2.93567261       3.27428849      25.84723702       0.00000500       0.00134782       0.00373714
Ti       1.46793903       1.14621117      27.16789974       0.00011235       0.00334220       0.00112652
Ti       4.40399714       1.14587613      27.16415337      -0.00003190       0.00066533       0.00174639
