64
Lattice="5.872 0.0 0.0 0.0 6.890708 0.0 0.0 0.0 27.394398" Properties=species:S:1:pos:R:3:forces:R:3 job_name=T1g-Zr-Zr-39-d-3.19 GB_type=T1g element=Zr system=Zr-39-d-3.19 distance=3.19 energy=-495.62155419 stress_kbar_3x3="_JSON [[-2.33953125, 0.00010387, 0.0014803], [0.00010382, -2.85034158, 1.26180737], [0.00148028, 1.26180737, -9.86726093]]" pbc="T T T"
Ti       4.40403608       5.25666074      27.27713186       0.00015849      -0.00494419      -0.00232387
Ti       1.46805438       5.25679396      27.27821003      -0.00011748      -0.00379782      -0.00306537
Ti       5.87115093       3.29612942       1.30261996       0.00002571      -0.00310633      -0.00129943
Ti       2.93696960       3.29612194       1.30263015      -0.00010076      -0.00321676      -0.00130944
Ti       5.87192550       6.46486492       1.91119393       0.00050373      -0.00098489       0.00538396
Ti       2.93618426       6.46487080       1.91118074      -0.00050226      -0.00076167       0.00548616
Ti       4.40410631       1.66698658       3.08173271      -0.00015935      -0.00886189       0.00467837
Ti       1.46804843       1.66724054       3.08240239      -0.00013394      -0.00909931       0.00439746
Ti       1.46803351       4.48783844       3.50142433       0.00003178      -0.00101112       0.00190324
Ti       4.40403239       4.48782616       3.50151763       0.00012728      -0.00081304       0.00145893
Ti       5.87171306       6.63705573       4.71121763       0.00008173      -0.00275252       0.00028419
Ti       2.93635982       6.63708240       4.71122103      -0.00007002      -0.00288463       0.00046371
Ti       2.93702046       2.69423823       5.30552009      -0.00002992      -0.00582858       0.00427354
Ti       5.87113157       2.69426793       5.30552389      -0.00010884      -0.00604871       0.00437485
Ti       4.40405833       4.84615607       6.46743438       0.00007730      -0.00515704       0.00162562
Ti       1.46806012       4.84492567       6.46872424       0.00004601      -0.00531957       0.00284478
Ti       4.40403114       0.77213237       6.96620971       0.00003651      -0.00276438      -0.00458304
Ti       1.46807381       0.77258045       6.96129371      -0.00012792      -0.00334270      -0.00510060
Ti       2.93683156       2.91479534       8.11920883       0.00084755      -0.00440561      -0.00439291
Ti       5.87125969       2.91479425       8.11924200      -0.00079224      -0.00448246      -0.00441322
Ti       2.93831817       5.89078657       8.71797871       0.00095106      -0.00325913       0.00362049
Ti       5.86977224       5.89080523       8.71796511      -0.00098962      -0.00318857       0.00364056
Ti       4.40401786       1.14230865       9.96896703      -0.00001024      -0.00423017       0.00786666
Ti       1.46804053       1.13944769       9.95788331       0.00005967      -0.00511693       0.00768722
Ti       4.40401299       3.96095940      10.31827441      -0.00004328       0.00444972      -0.00275921
Ti       1.46807178       3.95503322      10.31179196       0.00002935       0.00487384      -0.00330718
Ti       2.93341449       6.02264479      11.51263114      -0.00012089      -0.01210978      -0.00745070
Ti       0.00262335       6.02260607      11.51258848       0.00009098      -0.01198677      -0.00748970
Ti       2.92743583       2.40487405      12.13020582       0.00172344       0.00874907      -0.00196308
Ti       0.00863518       2.40489613      12.13012391      -0.00179606       0.00863233      -0.00166934
Ti       1.46802497       4.45646397      13.53937413       0.00005567       0.00061139       0.00847831
Ti       4.40402710       4.47533004      13.60254388      -0.00012908       0.00393910       0.00133507
Ti       4.40396855       0.40829588      13.46053334      -0.00006927       0.00559027      -0.01363654
Ti       1.46794116       0.39397322      13.51407436       0.00010309       0.00386398      -0.01216879
Ti       5.84411354       2.32156737      14.94467823       0.00780251       0.01285796       0.00538566
Ti       2.96377851       2.32155770      14.94467158      -0.00778733       0.01275748       0.00533287
Ti       5.81317188       6.19376332      15.57548296       0.00643885      -0.00992950       0.00948557
Ti       2.99470254       6.19377814      15.57544702      -0.00627147      -0.01000255       0.00948149
Ti       4.40391999       4.04256069      16.78469990       0.00013289       0.00585988       0.00109593
Zr       1.46793335       4.04719892      16.78061718       0.00040750       0.00079135       0.00105277
Ti       4.40395211       1.24302192      17.23378430      -0.00017732       0.00260155       0.00778392
Ti       1.46795917       1.14178772      17.20767195      -0.00004635       0.01927584       0.00344436
Ti       5.83038377       5.96792110      18.45793817       0.00521581      -0.01332572      -0.00555591
Ti       2.97752404       5.96793932      18.45792517      -0.00515105      -0.01347823      -0.00558070
Ti       2.96708474       2.96293001      19.08474076      -0.00873086       0.01466193      -0.00843430
Ti       5.84078359       2.96293736      19.08475420       0.00871540       0.01461050      -0.00848288
Ti       4.40393103       0.81763246      20.22565603       0.00004828       0.00492274       0.00521849
Ti       1.46796233       0.82244295      20.21733675       0.00000605       0.00254747       0.00483105
Ti       1.46798429       4.88137391      20.69797009      -0.00003812       0.00401669       0.00069141
Ti       4.40400159       4.89119029      20.72245105      -0.00019704       0.00433356       0.00357653
Ti       2.93273744       2.74185213      21.88036585       0.00112711       0.00622773      -0.00151881
Ti       0.00326194       2.74190691      21.88039007      -0.00123827       0.00607525      -0.00168709
Ti       2.93291821       6.65691376      22.47213157      -0.00060533       0.00001294       0.00105807
Ti       0.00300008       6.65687399      22.47213922       0.00065720       0.00015014       0.00100788
Ti       4.40400720       4.51188262      23.70266830      -0.00008180       0.00605970       0.00068088
Ti       1.46800300       4.50996873      23.69307929       0.00004720       0.00640047       0.00020630
Ti       4.40401171       1.68742191      24.08500559      -0.00003082      -0.00225587      -0.00517325
Ti       1.46798916       1.68912210      24.08878550      -0.00000908      -0.00231295      -0.00352416
Ti       2.93559134       6.49697620      25.27140965       0.00043196       0.00545002      -0.00557802
Ti       0.00047879       6.49697129      25.27142092      -0.00035467       0.00536633      -0.00570309
Ti       0.00058584       3.28666303      25.88122517      -0.00000377      -0.00161736      -0.00082087
Ti       2.93544260       3.28666237      25.88123004       0.00002762      -0.00169228      -0.00094042
Ti       1.46803207       1.20623606      27.29884841      -0.00006198      -0.00087471       0.00001843
Ti       4.40401491       1.20500829      27.29796149       0.00007867      -0.00072545      -0.00022281
