64
Lattice="5.872 0.0 0.0 0.0 6.890708 0.0 0.0 0.0 27.394398" Properties=species:S:1:pos:R:3:forces:R:3 job_name=T1g-Cu-Cu-46-d-6.48 GB_type=T1g element=Cu system=Cu-46-d-6.48 distance=6.48 energy=-491.3075697 stress_kbar_3x3="_JSON [[-11.99885178, -0.00019382, 0.00012356], [-0.00019382, -15.79335545, -5.12318163], [0.00012357, -5.1231816, -25.06445794]]" pbc="T T T"
Ti       4.40402218       5.04867773       0.09584653       0.00001699      -0.00606748      -0.00236223
Ti       1.46801482       5.04642773       0.09220031       0.00002377      -0.01365402       0.00156722
Ti       0.00174263       2.92983614       1.24523848       0.00134442      -0.00562417       0.00292621
Ti       2.93428028       2.92985263       1.24526248      -0.00144954      -0.00583348       0.00295496
Ti       0.00252882       6.76269947       1.86155372      -0.00082375       0.00206953       0.00195273
Ti       2.93350375       6.76270013       1.86156950       0.00080384       0.00210141       0.00191807
Ti       4.40396327       1.82132852       3.35921869       0.00004758      -0.01008037       0.00787470
Ti       1.46806583       1.81867067       3.36374003      -0.00012795      -0.00842813       0.00648579
Ti       1.46799534       4.64981340       3.21703516       0.00005267      -0.00888155      -0.00523388
Ti       4.40401407       4.64788942       3.22171911      -0.00002025      -0.00868965      -0.00713459
Ti       5.86794704       6.71296107       4.69701437       0.00045638      -0.00014942       0.00092013
Ti       2.94010319       6.71295530       4.69700313      -0.00049516      -0.00015644       0.00090191
Ti       2.93545699       3.16960578       5.32221455       0.00003348       0.00468842      -0.00620403
Ti       0.00056193       3.16953845       5.32220494       0.00002927       0.00487783      -0.00633232
Ti       4.40401649       5.22618088       6.57205027       0.00000228       0.00143623       0.00446559
Ti       1.46800094       5.22549408       6.57022558       0.00003948       0.00142364       0.00477781
Ti       4.40399992       1.15934280       6.86722579       0.00005367      -0.00309532      -0.00911593
Ti       1.46801835       1.16047672       6.86743307      -0.00002764      -0.00321177      -0.00937117
Ti       2.93554504       3.30373132       8.14903870       0.00000155       0.00318710      -0.00028779
Ti       0.00049527       3.30371265       8.14907913      -0.00009969       0.00317825      -0.00043224
Ti       2.93664569       6.30743352       8.75824476      -0.00003557       0.00835291       0.00008671
Ti       5.87136541       6.30746043       8.75825823       0.00000782       0.00831172       0.00002866
Ti       4.40402353       1.56558788       9.91251882      -0.00011550       0.00305516       0.00434886
Ti       1.46799708       1.56481103       9.90958117       0.00002607       0.00412646       0.00531203
Ti       4.40400400       4.38452035      10.41160032      -0.00000170       0.00113309       0.00258959
Ti       1.46800841       4.38678935      10.41947479       0.00004439       0.00029339       0.00260446
Ti       2.93424858       6.56726663      11.59773946       0.00012166       0.00696657       0.00301389
Ti       0.00178137       6.56724473      11.59773259      -0.00010488       0.00706210       0.00299937
Ti       2.93447861       2.57992107      12.19729285      -0.00015418       0.00278830       0.00089909
Ti       0.00149897       2.57991894      12.19728416       0.00020369       0.00274721       0.00090731
Ti       1.46800685       4.75719180      13.36873982      -0.00002685       0.00409500      -0.00007990
Ti       4.40401018       4.75963482      13.35703432      -0.00001280       0.00345832       0.00034695
Ti       4.40402186       0.69435819      13.88244982      -0.00007127       0.00728965      -0.00304129
Ti       1.46797609       0.69258953      13.89095024       0.00006758       0.00687008      -0.00198045
Ti       5.86271530       2.87075600      15.04544787      -0.00179647       0.00095630      -0.00295064
Ti       2.94526530       2.87075348      15.04546475       0.00187025       0.00097943      -0.00299285
Ti       5.87097012       5.80335826      15.64584539      -0.00099895       0.00318046      -0.00104201
Ti       2.93705012       5.80338054      15.64583398       0.00101356       0.00311911      -0.00095330
Ti       4.40399200       3.94392020      17.33840361      -0.00001319       0.00405630      -0.00088134
Ti       1.46802744       3.89067139      17.26911187      -0.00000456      -0.00129803       0.00403270
Ti       4.40401725       1.09928817      16.82372843      -0.00004412       0.00372435      -0.00138794
Ti       1.46800836       1.06502778      16.89304692       0.00002281       0.00233143      -0.00137173
Ti       5.84914249       6.01923024      18.47934044       0.00050583       0.00523982      -0.00067640
Ti       2.95883052       6.01919426      18.47932158      -0.00033474       0.00523808      -0.00068050
Ti       2.97857986       2.27074127      19.05192626      -0.00246683      -0.00134881       0.00550582
Ti       5.82947474       2.27070174      19.05193792       0.00257608      -0.00122396       0.00573721
Cu       4.40405347       0.39501662      20.34873966      -0.00017923      -0.00921291       0.00402648
Ti       1.46802701       0.26981069      20.38699391      -0.00020491       0.00943373      -0.00710147
Ti       1.46799542       4.32735256      20.45050346       0.00002060       0.00282398      -0.00224143
Ti       4.40400009       4.45866273      20.48065208      -0.00002748      -0.00330700       0.00108215
Ti       2.98725154       2.29811384      21.81870166       0.00015018      -0.00130866      -0.00348696
Ti       5.82078974       2.29812690      21.81863873      -0.00012847      -0.00139228      -0.00353709
Ti       2.99107249       6.21150043      22.37725212       0.01177162      -0.00915592       0.00478272
Ti       5.81692700       6.21146299      22.37720641      -0.01155506      -0.00882700       0.00464771
Ti       4.40398939       4.10401622      23.49423307      -0.00000375       0.01138722       0.00167984
Ti       1.46804830       4.07130900      23.54695441      -0.00001288      -0.00742547      -0.00042472
Ti       4.40399387       1.29381383      24.09702548      -0.00006541      -0.00464571      -0.00379609
Ti       1.46800283       1.25669225      24.01414379       0.00004375       0.00403593      -0.00019091
Ti       2.93530218       6.01036296      25.20912039       0.00676989      -0.00775515      -0.00161629
Ti       0.00070529       6.01035702      25.20911901      -0.00671529      -0.00781976      -0.00152629
Ti      -0.00030517       3.12171233      25.81097713      -0.00353146       0.00422128      -0.00254360
Ti       2.93635445       3.12172149      25.81096830       0.00349529       0.00417574      -0.00265005
Ti       1.46799813       0.96256439      26.99348500       0.00008507      -0.00695538       0.00018030
Ti       4.40402366       0.96960670      27.01436675      -0.00005203      -0.00886771       0.00207046
