64
Lattice="5.872 0.0 0.0 0.0 6.890708 0.0 0.0 0.0 27.394398" Properties=species:S:1:pos:R:3:forces:R:3 job_name=T1g-V-V-38-d-3.19 GB_type=T1g element=V system=V-38-d-3.19 distance=3.19 energy=-496.08589142 stress_kbar_3x3="_JSON [[-11.12374873, -0.00126568, -6.887e-05], [-0.00126568, -13.75306596, -0.55804803], [-6.886e-05, -0.558048, -21.23739373]]" pbc="T T T"
Ti       4.40400454       5.15690419       0.08541017       0.00043498      -0.00676365      -0.00263119
Ti       1.46809301       5.15658100       0.08701550      -0.00049338      -0.00144348      -0.00300492
Ti       5.87179115       3.06553105       1.26886680      -0.00012979      -0.00347875       0.00082713
Ti       2.93636895       3.06559594       1.26870614      -0.00011237      -0.00418629       0.00318088
Ti       5.87146979       6.76531676       1.88923245      -0.00043997      -0.00116242       0.00505707
Ti       2.93666100       6.76532940       1.88918915       0.00029786      -0.00128576       0.00520788
Ti       4.40416603       1.84305472       3.29496565      -0.00015282      -0.00760441       0.00514676
Ti       1.46794580       1.84264363       3.29462811       0.00025428      -0.00678019       0.00506753
Ti       1.46796100       4.67827948       3.31523784       0.00020152      -0.00310607      -0.00563756
Ti       4.40401968       4.67737120       3.31444231      -0.00006317      -0.00069498      -0.00265800
Ti       5.87166680       6.77394573       4.72429739      -0.00016624      -0.00452031      -0.00997383
Ti       2.93631122       6.77394499       4.72424420       0.00014731      -0.00436448      -0.01002609
Ti       2.93607202       3.03624034       5.34192497      -0.00001960       0.00813323      -0.00535787
Ti       5.87198200       3.03626026       5.34201146      -0.00005431       0.00829063      -0.00551857
Ti       4.40392031       5.13703632       6.51273029       0.00016571       0.00798457       0.01060198
Ti       1.46803203       5.13769098       6.51099767      -0.00018461       0.00668254       0.00897464
Ti       4.40396016       1.06268525       6.94477041       0.00006101       0.00435064      -0.00731185
Ti       1.46800076       1.06380978       6.94560152      -0.00003136       0.00487129      -0.00553974
Ti       2.93507758       3.22643747       8.15944466      -0.00030323      -0.00163369       0.00055984
Ti       0.00085966       3.22642210       8.15944302       0.00025303      -0.00162410       0.00086118
Ti       2.93532976       6.15847579       8.76136857       0.00105200       0.00370788       0.00590937
Ti       0.00057559       6.15850539       8.76139411      -0.00101245       0.00346579       0.00520701
Ti       4.40397013       1.43156905       9.91828903      -0.00010235      -0.00304532       0.00059865
Ti       1.46792428       1.43291503       9.92036994       0.00024722       0.00086728       0.00208913
Ti       4.40395632       4.25408803      10.43378142       0.00017425      -0.00287569      -0.00201953
Ti       1.46797802       4.25020532      10.43804280      -0.00017942      -0.00777144      -0.00654023
Ti       2.93357520       6.41847841      11.60467010       0.00256924      -0.00834795      -0.00565678
Ti       0.00240275       6.41853289      11.60457656      -0.00261197      -0.00874207      -0.00498391
Ti       2.93784713       2.44021603      12.19502453      -0.00342279      -0.00115764       0.00023625
Ti       5.87009783       2.44009779      12.19499502       0.00333621       0.00003795       0.00124764
Ti       1.46807341       4.59403769      13.41114802      -0.00083976      -0.00883141       0.00402145
Ti       4.40395569       4.61048352      13.38247955       0.00072477       0.00377074       0.00438693
Ti       4.40395367       0.53679588      13.86713605       0.00091947      -0.01221290      -0.00595225
Ti       1.46803405       0.53671496      13.84372082      -0.00061331      -0.00002881      -0.00447449
Ti       5.81503567       2.65386180      15.04196273       0.00290797      -0.00158808       0.00592494
Ti       2.99309465       2.65376225      15.04174186      -0.00356703      -0.00055557       0.00715471
Ti       5.84483144       5.72492764      15.60021535       0.00113417       0.01097260      -0.00150732
Ti       2.96319154       5.72507250      15.59977002      -0.00138971       0.00953260       0.00261853
V        4.40400741       3.88781118      17.00909979      -0.00009226       0.00131967      -0.00361379
Ti       1.46800122       3.77306091      17.00992771       0.00107593      -0.00528504      -0.01264816
Ti       4.40394852       0.98636582      16.99952054       0.00030883       0.01463914       0.00358981
Ti       1.46798174       0.90173664      17.00163097       0.00009593       0.01152411       0.00177411
Ti       5.84441381       5.72899555      18.40740661      -0.00150357       0.00558927       0.00352214
Ti       2.96366337       5.72912515      18.40767259       0.00101801       0.00426350      -0.00041797
Ti       2.99287729       2.64544234      18.96719480       0.00505566       0.00621563      -0.00444276
Ti       5.81528306       2.64555552      18.96692533      -0.00592794       0.00498810      -0.00212162
Ti       4.40386710       0.53056564      20.14594408       0.00130844       0.01156866      -0.00050188
Ti       1.46811017       0.53182538      20.16988570      -0.00077181       0.00226523      -0.00066479
Ti       1.46810760       4.59008219      20.59378060      -0.00065242       0.00313061      -0.00454624
Ti       4.40391255       4.60916826      20.62156547       0.00108320      -0.00151325      -0.00388805
Ti       2.93765246       2.44200258      21.81190535       0.00080475      -0.00090550      -0.00333357
Ti       5.87035133       2.44195808      21.81205576      -0.00088014      -0.00004762      -0.00533885
Ti       2.93396252       6.41819112      22.40438492       0.00051726      -0.00023095       0.00290790
Ti       0.00207472       6.41816897      22.40447320      -0.00062920       0.00012690       0.00113419
Ti       4.40403619       4.25915799      23.57384737      -0.00035133      -0.00296871       0.00440895
Ti       1.46796992       4.25383780      23.57166363       0.00039902       0.00253408       0.00113326
Ti       4.40408847       1.44291338      24.08729329      -0.00074679      -0.00433539       0.00064877
Ti       1.46793328       1.44413211      24.08560429       0.00083950      -0.00609613      -0.00009116
Ti       2.93601682       6.17614833      25.24104425      -0.00251868      -0.00175203       0.00162779
Ti       0.00004800       6.17623457      25.24077923       0.00251038      -0.00265629       0.00391986
Ti       0.00076334       3.23652263      25.84730992      -0.00017771      -0.00245236       0.00528312
Ti       2.93528982       3.23653127      25.84750706       0.00016625      -0.00265472       0.00343312
Ti       1.46803728       1.08082190      27.07103304       0.00001727      -0.00398686       0.00495987
Ti       4.40405729       1.07967356      27.07096357       0.00006004      -0.00214239       0.00718055
