64
Lattice="5.872 0.0 0.0 0.0 6.890708 0.0 0.0 0.0 27.394398" Properties=species:S:1:pos:R:3:forces:R:3 job_name=T1g-Zr-Zr-46-d-6.48 GB_type=T1g element=Zr system=Zr-46-d-6.48 distance=6.48 energy=-495.63584912 stress_kbar_3x3="_JSON [[-3.01656852, -0.00045728, 0.00030861], [-0.00045725, -1.98089847, 0.48077833], [0.0003086, 0.48077834, -10.3590401]]" pbc="T T T"
Ti       4.40393983       5.20482164       0.02018354       0.00001020      -0.00244079      -0.00054639
Ti       1.46805778       5.20581942       0.01592543      -0.00000457      -0.00239650      -0.00148816
Ti       0.00290796       3.18855249       1.30321134       0.00028705      -0.00086634       0.00199094
Ti       2.93310283       3.18852146       1.30322104      -0.00051808      -0.00080359       0.00188293
Ti       5.86986336       6.62792684       1.91772352      -0.00045665      -0.00050613       0.00501383
Ti       2.93813245       6.62796273       1.91776328       0.00036522      -0.00055176       0.00476855
Ti       4.40400733       1.76496731       3.19796482       0.00000616      -0.00613456       0.00100554
Ti       1.46794262       1.76419049       3.19780140      -0.00002447      -0.00658080       0.00189234
Ti       1.46798491       4.59610153       3.41636890      -0.00004328      -0.00466495       0.00166469
Ti       4.40398836       4.59632560       3.41622660       0.00002900      -0.00373542       0.00185505
Ti       5.87178551       6.72329277       4.72408182      -0.00030749       0.00034031      -0.00195557
Ti       2.93614478       6.72329940       4.72409174       0.00035942       0.00032215      -0.00186313
Ti       2.93535153       2.87598789       5.32803186       0.00011610      -0.00595125      -0.00612477
Ti       0.00057737       2.87598043       5.32805230      -0.00003759      -0.00597609      -0.00609198
Ti       4.40395484       5.00384340       6.48276007       0.00001740      -0.00306487      -0.00000682
Ti       1.46795527       5.00386222       6.48278282       0.00002087      -0.00300202       0.00009785
Ti       4.40396562       0.93447137       6.95972605      -0.00002617      -0.00471742      -0.00176936
Ti       1.46794889       0.93429666       6.95986252       0.00004944      -0.00488635      -0.00185796
Ti       2.93567141       3.08987708       8.13843235      -0.00032080      -0.00180700      -0.00092562
Ti       0.00026240       3.08987986       8.13845950       0.00031858      -0.00185891      -0.00096129
Ti       2.93582652       6.02419908       8.73308618      -0.00025775      -0.00549683      -0.00245014
Ti       0.00013289       6.02418136       8.73310333       0.00016549      -0.00546798      -0.00244933
Ti       4.40399248       1.28899943       9.91635685       0.00004499      -0.00546276      -0.00089631
Ti       1.46800161       1.28874471       9.91607732       0.00001022      -0.00549717      -0.00028320
Ti       4.40398628       4.10640744      10.38852190       0.00005049      -0.00754152      -0.00501829
Ti       1.46799262       4.10741389      10.38952517      -0.00004586      -0.00650540      -0.00555277
Ti       2.93905623       6.22635322      11.53917941       0.00074276      -0.00527101       0.00015938
Ti       5.86898965       6.22635477      11.53921187      -0.00099686      -0.00536646       0.00001974
Ti       2.93310269       2.39534850      12.14536789      -0.00057928      -0.00454068       0.00256166
Ti       0.00294470       2.39535418      12.14535358       0.00055819      -0.00453947       0.00252096
Ti       1.46808363       4.51375904      13.47405155      -0.00003483      -0.00655776       0.01162340
Ti       4.40406100       4.51257026      13.47201971      -0.00002649      -0.00627445       0.01082702
Ti       4.40399811       0.45007705      13.65480179      -0.00004224       0.00414370      -0.00756935
Ti       1.46806057       0.44913184      13.65175988       0.00004804       0.00274898      -0.00685699
Ti       0.01163569       2.45560871      14.94682288       0.00519810      -0.01307786      -0.00247637
Ti       2.92448591       2.45563001      14.94685923      -0.00532980      -0.01304418      -0.00253650
Ti       5.86037108       5.94734338      15.56597687      -0.00109588       0.01339195       0.00024840
Ti       2.94771581       5.94733734      15.56596680       0.00110331       0.01327188       0.00053874
Ti       4.40408866       3.88827368      16.84280063       0.00000326       0.01132204      -0.01359442
Ti       1.46801270       3.90272367      16.80675241       0.00003618       0.00906749      -0.00910730
Ti       4.40405499       1.07144024      17.04464099       0.00003706       0.00878413      -0.00081921
Ti       1.46803071       1.08674782      17.10539110      -0.00002882       0.00713063       0.00280029
Ti       0.01664501       5.80029172      18.36734235       0.00268990      -0.00381693      -0.00898374
Ti       2.91944478       5.80037696      18.36745954      -0.00259456      -0.00407292      -0.00947228
Ti       2.88814822       2.86560038      18.99244873      -0.00139383       0.01878217      -0.00638762
Ti       0.04799966       2.86569998      18.99240218       0.00126033       0.01828414      -0.00593757
Zr       4.40402108       0.69363996      20.19146650       0.00094206       0.00721750      -0.00465176
Ti       1.46812603       0.69758007      20.19768860      -0.00043473       0.00675294       0.00220533
Ti       1.46800259       4.78471610      20.67582099      -0.00024042       0.00274927       0.00044727
Ti       4.40402499       4.69108774      20.65568195       0.00033631      -0.00328932       0.00609565
Ti       2.89573335       2.62148458      21.87909963      -0.00252299       0.00945617       0.00503566
Ti       0.04031857       2.62146215      21.87915136       0.00249972       0.00949823       0.00472494
Ti       2.90638546       6.51590648      22.50600486      -0.00584344       0.00299970       0.00864943
Ti       0.02966279       6.51588299      22.50613836       0.00585354       0.00318075       0.00807347
Ti       4.40399718       4.37699420      23.65864467       0.00010059       0.00048189       0.00291775
Ti       1.46800875       4.37241028      23.66478829      -0.00005955       0.00445035      -0.00241140
Ti       4.40401116       1.55155957      24.11142049       0.00007012       0.00375271       0.00116150
Ti       1.46797969       1.55784722      24.13685826       0.00002184       0.00222480      -0.00292831
Ti       2.94101176       6.32843441      25.29289192      -0.00038719      -0.00207337       0.00530589
Ti       5.86699004       6.32843299      25.29290700       0.00030439      -0.00210020       0.00554752
Ti       5.86971350       3.26450278      25.89228831       0.00130387       0.00598186       0.00596923
Ti       2.93826639       3.26451113      25.89233497      -0.00132538       0.00607419       0.00583241
Ti       1.46800416       1.14779884      27.21273836       0.00000756      -0.00071380       0.00487784
Ti       4.40398116       1.14564866      27.20238967       0.00001124      -0.00175511       0.00565869
