64
Lattice="5.872 0.0 0.0 0.0 6.890708 0.0 0.0 0.0 27.394398" Properties=species:S:1:pos:R:3:forces:R:3 job_name=T1g-V-V-48-d-6.96 GB_type=T1g element=V system=V-48-d-6.96 distance=6.96 energy=-495.72181934 stress_kbar_3x3="_JSON [[-12.998368, 0.00133583, -4.719e-05], [0.00133584, -13.88574128, -1.3863476], [-4.721e-05, -1.38634761, -19.79689338]]" pbc="T T T"
Ti       4.40399993       5.20616527      27.35960027       0.00015239      -0.00969500       0.00370280
Ti       1.46799880       5.20378432      27.36865178       0.00006265      -0.00480741      -0.00487697
Ti       5.87128587       3.18904579       1.27286802       0.00332436      -0.00748374      -0.00431051
Ti       2.93671322       3.18904754       1.27287030      -0.00347221      -0.00753072      -0.00434319
Ti       5.86889242       6.62760137       1.89123408       0.00258482      -0.01213674      -0.00692407
Ti       2.93907484       6.62761520       1.89117281      -0.00265890      -0.01210967      -0.00666580
Ti       4.40400295       1.76765631       3.18445408      -0.00005025      -0.01047826      -0.00823781
Ti       1.46796375       1.76533814       3.18479682      -0.00000751      -0.00935121      -0.01093610
Ti       1.46795599       4.59341564       3.39946788       0.00000677      -0.00892721      -0.00178205
Ti       4.40398046       4.59344326       3.40018778      -0.00002572      -0.00826246      -0.00321450
Ti       0.00009444       6.72387943       4.71175466      -0.00014335      -0.00056502      -0.00287468
Ti       2.93582345       6.72386287       4.71169150       0.00016993      -0.00040375      -0.00262327
Ti       2.93578217       2.87565022       5.32491099      -0.00066962      -0.00520398      -0.00567457
Ti       0.00013614       2.87566433       5.32497689       0.00063967      -0.00518413      -0.00571417
Ti       4.40392914       5.00733628       6.48528071       0.00008043      -0.00173393      -0.00381959
Ti       1.46796516       5.00684255       6.48431678       0.00000896      -0.00145345      -0.00386103
Ti       4.40393276       0.93113643       6.96008456       0.00002318      -0.00058355       0.00003195
Ti       1.46795937       0.93090021       6.95929845      -0.00004276      -0.00059782       0.00140747
Ti       2.93593209       3.09144039       8.14366803      -0.00050562       0.00120959       0.00318701
Ti       5.87196878       3.09142502       8.14373905       0.00078891       0.00126059       0.00288302
Ti       2.93555843       6.02550423       8.74692003       0.00039057      -0.00176334       0.00505907
Ti       0.00039238       6.02553538       8.74689970      -0.00043473      -0.00195292       0.00501972
Ti       4.40399685       1.29525015       9.93355047       0.00002064      -0.00212396       0.00272749
Ti       1.46802456       1.29580828       9.93145738       0.00005308      -0.00140841       0.00312257
Ti       4.40396795       4.10979706      10.40572501       0.00008473       0.00133461       0.00942687
Ti       1.46801845       4.10946550      10.40645158       0.00001055       0.00232187       0.01012773
Ti       2.93572727       6.23994483      11.56712556       0.00295649       0.00213967       0.00919644
Ti       0.00036072       6.23991528      11.56709286      -0.00293529       0.00227046       0.00932917
Ti       2.93369555       2.39409071      12.18155265      -0.00355805      -0.00120985       0.00160829
Ti       0.00242841       2.39410431      12.18149980       0.00343079      -0.00124554       0.00160449
Ti       1.46807931       4.52351091      13.49594472      -0.00010446      -0.00035722       0.00246775
Ti       4.40405941       4.52082203      13.49494725       0.00010659       0.00344909       0.00229124
Ti       4.40411437       0.45526702      13.70510561      -0.00025449       0.01067664       0.00743837
Ti       1.46808607       0.45956356      13.70946109      -0.00009156       0.00228072       0.00392058
Ti       0.00258594       2.48430836      15.00387799       0.00393810       0.00749420      -0.00008906
Ti       2.93354980       2.48428704      15.00392815      -0.00392275       0.00753777      -0.00031392
Ti       5.86056736       5.92601472      15.61850909       0.00362471       0.01679463       0.00085276
Ti       2.94757055       5.92604962      15.61855498      -0.00357733       0.01657008       0.00097592
Ti       4.40410388       3.89957162      16.93921714      -0.00007249       0.01442593      -0.00460033
Ti       1.46805965       3.91324308      16.89934430      -0.00006290       0.00407274       0.00387730
Ti       4.40400393       1.07426047      17.12076288       0.00018898       0.01527779      -0.00994732
Ti       1.46800407       1.07920137      17.13544986      -0.00000933       0.00317117      -0.00695839
Ti       0.02058546       5.83489418      18.45720775      -0.00148833      -0.00408324       0.00240099
Ti       2.91548313       5.83491627      18.45728234       0.00148775      -0.00410824       0.00228439
Ti       2.89492970       2.83072599      19.05452290       0.00194785       0.00139890      -0.00565721
Ti       0.04120068       2.83075401      19.05458730      -0.00193055       0.00130556      -0.00585871
Ti       4.40405404       0.71523188      20.19849038      -0.00004541       0.01328341      -0.00033211
Ti       1.46802211       0.63515552      20.17207683       0.00001373       0.00099867      -0.00591094
V        1.46788478       4.74765060      20.65084204       0.00007739      -0.01067415      -0.00828336
Ti       4.40413239       4.76208908      20.64019958      -0.00015968       0.00832268       0.01639155
Ti       2.89965771       2.62347637      21.83166278      -0.00802524       0.00188781       0.00016246
Ti       0.03632030       2.62339245      21.83174311       0.00813098       0.00192359      -0.00008153
Ti       2.93087968       6.49318799      22.39434089       0.00042984      -0.00080290       0.00378843
Ti       0.00511010       6.49321626      22.39441996      -0.00028367      -0.00078476       0.00381979
Ti       4.40398214       4.37626140      23.63532687       0.00007452       0.00003978      -0.00239758
Ti       1.46799398       4.36648624      23.60127603       0.00005484      -0.00029700      -0.01257398
Ti       4.40399150       1.54280086      24.04130933       0.00006915      -0.00134220       0.00978623
Ti       1.46805222       1.54061655      24.06177212      -0.00008948       0.00107328       0.01065328
Ti       2.93603026       6.32358938      25.23186228       0.00165665       0.00361925      -0.00048676
Ti       0.00004329       6.32358544      25.23187774      -0.00196615       0.00359064      -0.00041557
Ti       0.00512502       3.25971250      25.84530600      -0.00428499      -0.00176739       0.00084895
Ti       2.93085792       3.25974285      25.84530665       0.00421438      -0.00183851       0.00101201
Ti       1.46797621       1.14048713      27.16962934       0.00007845       0.00107938      -0.00826435
Ti       4.40398664       1.14111032      27.16361549      -0.00001002      -0.00854279       0.00662336
