64
Lattice="5.872 0.0 0.0 0.0 6.890708 0.0 0.0 0.0 27.394398" Properties=species:S:1:pos:R:3:forces:R:3 job_name=T1g-Zr-Zr-42-d-4.72 GB_type=T1g element=Zr system=Zr-42-d-4.72 distance=4.72 energy=-495.64221043 stress_kbar_3x3="_JSON [[-2.81490232, -0.00051892, -0.00065545], [-0.00051893, -2.96804588, -0.22097191], [-0.00065547, -0.22097192, -9.95750984]]" pbc="T T T"
Ti       4.41366459       5.20410681       0.01826162       0.00292588       0.00340905       0.00464604
Ti       1.45829654       5.20410938       0.01827742      -0.00288626       0.00341810       0.00462905
Ti       0.00001578       3.18280382       1.30192064       0.00003272      -0.00653542       0.00270506
Ti       2.93596207       3.18696014       1.29574900       0.00016348      -0.00722151       0.00455733
Ti       0.00003111       6.62958980       1.91615996      -0.00002040       0.00442030       0.01242551
Ti       2.93599364       6.62385443       1.90775653      -0.00000995       0.00344453       0.01170324
Ti       4.39614555       1.75915394       3.19010212       0.00326327      -0.00629678       0.00302072
Ti       1.47583670       1.75913719       3.19010148      -0.00315259      -0.00621977       0.00299071
Ti       1.46959924       4.59264553       3.40803315       0.00089087       0.00264531       0.00111999
Ti       4.40246007       4.59265638       3.40803659      -0.00089875       0.00260048       0.00109598
Ti       0.00001448       6.71760407       4.71837380      -0.00001536       0.00300603      -0.00062667
Ti       2.93602125       6.71898174       4.71485243      -0.00013622       0.00005269      -0.00094377
Ti       2.93601448       2.86992971       5.32131482      -0.00005433      -0.00069402      -0.01091300
Ti       0.00002413       2.87213543       5.31582098      -0.00005120      -0.00549269      -0.00217965
Ti       4.40411556       4.99917490       6.47312524       0.00024237      -0.00024759      -0.00276955
Ti       1.46787395       4.99915328       6.47311450      -0.00009098      -0.00005001      -0.00280216
Ti       4.40327936       0.93037153       6.95009115       0.00094729      -0.00070626      -0.00885478
Ti       1.46876198       0.93036043       6.95008872      -0.00096159      -0.00075865      -0.00882860
Ti       2.93600332       3.08700266       8.13051931      -0.00002782      -0.00053931      -0.00296698
Ti       0.00000672       3.08805827       8.12620016      -0.00003085      -0.00265813       0.00177244
Ti       2.93600128       6.02154701       8.71872388      -0.00007427       0.00347308      -0.00019655
Ti       0.00001461       6.02236110       8.72259780      -0.00014787      -0.00127791       0.00245783
Ti       4.40535529       1.28811330       9.90364125       0.00199589       0.00063547      -0.00334474
Ti       1.46660790       1.28809712       9.90362568      -0.00179182       0.00070405      -0.00324856
Ti       4.40766137       4.10964075      10.37419267       0.00132360       0.00083764      -0.00179068
Ti       1.46432340       4.10964447      10.37420806      -0.00120592       0.00085987      -0.00185982
Ti       2.93603033       6.23161017      11.52171514      -0.00012885      -0.00472493      -0.00647097
Ti       5.87198335       6.23588583      11.53107627      -0.00001053      -0.00637235       0.00647233
Ti       2.93599603       2.40048000      12.12509645       0.00000225       0.00165775      -0.00563720
Ti       0.00001008       2.39831972      12.13878760       0.00001396       0.01024417       0.00633170
Ti       1.46926111       4.52670058      13.45592354      -0.00276845       0.00160946       0.00099569
Ti       4.40274797       4.52672010      13.45593154       0.00270912       0.00155548       0.00092088
Ti       4.40221119       0.45706800      13.64687780      -0.00543463      -0.00476321      -0.00321643
Ti       1.46981900       0.45704208      13.64687238       0.00528613      -0.00467225      -0.00327387
Ti       0.00003694       2.48382421      14.94108150       0.00010479      -0.00737468       0.01582989
Ti       2.93592996       2.47646694      14.91660303       0.00025419      -0.00108662       0.01254154
Ti       0.00000583       5.94716709      15.53405264      -0.00000007      -0.00263572      -0.00422335
Ti       2.93603050       5.96422715      15.59029293       0.00017587       0.00313445      -0.01115886
Ti       4.37142265       3.89720987      16.83441732      -0.00430593       0.00740224      -0.00044989
Ti       1.50061505       3.89724141      16.83443880       0.00404757       0.00731505      -0.00043469
Ti       4.36406140       1.12623308      17.05540328      -0.00184063       0.00828176      -0.00288135
Ti       1.50801172       1.12624723      17.05539649       0.00160261       0.00811731      -0.00279544
Zr       5.87193087       5.86216029      18.44887230       0.00048362      -0.00678798       0.00078192
Ti       2.93600629       5.85771933      18.43603905      -0.00017938      -0.00801503      -0.01359899
Ti       2.93601324       2.82582529      19.03810948       0.00009842      -0.00118836       0.00917736
Ti       0.00003683       2.75004013      19.00362879       0.00006116      -0.00851493      -0.00296835
Ti       4.35407674       0.70182397      20.25534189      -0.00135468       0.00541104       0.00380358
Ti       1.51796540       0.70181752      20.25531264       0.00133415       0.00546048       0.00393043
Ti       1.50488333       4.71697249      20.72469208      -0.00291645       0.00467798      -0.00321010
Ti       4.36719929       4.71695165      20.72469664       0.00269416       0.00466089      -0.00310870
Ti       2.93602308       2.57158758      21.89424784      -0.00009531       0.00002065       0.01050103
Ti       0.00003174       2.58851212      21.87006607       0.00004165       0.00566096      -0.00260426
Ti       2.93604363       6.52756059      22.50024255      -0.00005380      -0.00049207       0.00692739
Ti       0.00006424       6.52039774      22.45943742      -0.00008312      -0.00296336      -0.00526818
Ti       4.40849325       4.37509940      23.66148640       0.00221428       0.00235940       0.00258308
Ti       1.46355640       4.37508088      23.66147543      -0.00224942       0.00234558       0.00250708
Ti       4.40762607       1.54832080      24.13075777      -0.00120319      -0.00152862      -0.00120621
Ti       1.46440120       1.54831607      24.13075517       0.00119055      -0.00140982      -0.00113287
Ti       2.93597528       6.31819367      25.30347152       0.00008306       0.00799700      -0.00347081
Ti       0.00000554       6.31835476      25.27704188      -0.00003326      -0.00595613      -0.00425237
Ti       0.00000787       3.27082089      25.89129572       0.00006767       0.00251099      -0.01249180
Ti       2.93599562       3.26734100      25.88479962       0.00005970      -0.00574118      -0.00566617
Ti       1.46568111       1.14666210      27.20181589      -0.00205496      -0.00358483       0.00723004
Ti       4.40637147       1.14665450      27.20182344       0.00195859      -0.00341916       0.00718852
