64
Lattice="5.872 0.0 0.0 0.0 6.890708 0.0 0.0 0.0 27.394398" Properties=species:S:1:pos:R:3:forces:R:3 job_name=T1g-Zr-Zr-30-d-0.22 GB_type=T1g element=Zr system=Zr-30-d-0.22 distance=0.22 energy=-495.84439901 stress_kbar_3x3="_JSON [[-3.03808112, -0.0057627, 0.00187983], [-0.0057627, -2.77716975, 3.81767508], [0.00187981, 3.81767507, -9.70831415]]" pbc="T T T"
Ti       4.40418752       5.20904647       0.00003451      -0.00000762      -0.00146002       0.00705291
Ti       1.46778802       5.20972759       0.00018861       0.00006734      -0.00117588       0.00791981
Ti       0.00111401       3.18869153       1.27540482       0.00121345      -0.00055507       0.00485618
Ti       2.93488545       3.18887186       1.27520293      -0.00116924      -0.00053747       0.00470894
Ti       5.87102761       6.63247296       1.88766094       0.00165284      -0.00082764      -0.00597206
Ti       2.93684276       6.63230493       1.88739576      -0.00167475      -0.00094593      -0.00597336
Ti       4.40381866       1.76538663       3.16388267       0.00002179      -0.00186916      -0.00161513
Ti       1.46821442       1.76399987       3.16174507       0.00007087      -0.00328912      -0.00462108
Ti       1.46790256       4.59820485       3.38037971      -0.00005406      -0.00102656      -0.00751499
Ti       4.40381409       4.60046231       3.37864664       0.00000406       0.00074702      -0.00532902
Ti      -0.00042922       6.72512121       4.68709374      -0.00211206       0.00185316      -0.00854614
Ti       2.93636429       6.72510081       4.68697479       0.00215037       0.00201989      -0.00848581
Ti       2.93526528       2.88283060       5.28891871       0.00240936      -0.00142657      -0.01252348
Ti       0.00069220       2.88285030       5.28877612      -0.00242258      -0.00141522      -0.01284692
Ti       4.40397535       5.00949075       6.43495379      -0.00015184       0.00354801      -0.01042785
Ti       1.46798489       5.01125150       6.45016719       0.00014418       0.00268559      -0.00796315
Ti       4.40390642       0.94257249       6.91929131      -0.00007470       0.00408244      -0.00912656
Ti       1.46795244       0.94072124       6.92168302       0.00014128       0.00411491      -0.01151056
Ti       2.94330749       3.09877916       8.10374010      -0.00122344       0.00261670      -0.00401159
Ti       5.86453101       3.09881453       8.10369806       0.00119793       0.00256340      -0.00401804
Ti       2.93895363       6.02193148       8.69528533       0.00054127      -0.00209811      -0.00607841
Ti       5.86898819       6.02196989       8.69522113      -0.00055277      -0.00208690      -0.00603860
Ti       4.40407954       1.29189589       9.87635704       0.00009206       0.00421341       0.00499817
Ti       1.46805866       1.29103681       9.88442759      -0.00002227       0.00739088       0.00071446
Ti       4.40392089       4.09289211      10.39297210      -0.00002396      -0.00127482      -0.00143099
Ti       1.46788205       4.09175814      10.33278273      -0.00011606      -0.00046396       0.00091057
Ti       2.92718768       6.22800871      11.48504024      -0.00163253       0.00456676       0.01091933
Ti       0.00885459       6.22793917      11.48506618       0.00176000       0.00459229       0.01082596
Ti       2.98196571       2.32682322      12.12311843       0.00036651      -0.00325376       0.00784349
Ti       5.82625759       2.32684465      12.12310783      -0.00037148      -0.00329838       0.00791825
Zr       1.46850600       4.44991448      13.54963769      -0.00043428      -0.00314431      -0.00355379
Ti       4.40457564       4.42655911      13.57182865       0.00009157      -0.00074218      -0.00000890
Ti       4.40393511       0.35435362      13.60584653       0.00000809       0.00343242       0.00667651
Ti       1.46789171       0.45762284      13.61535520      -0.00012323      -0.00004558       0.00822635
Ti       5.81098208       2.31246819      15.03902175      -0.00536282      -0.00368489       0.00060073
Ti       2.99727699       2.31246364      15.03895286       0.00538162      -0.00357969       0.00059570
Ti       0.00383695       6.06250628      15.66712556       0.00839922       0.00389204      -0.00660708
Ti       2.93226434       6.06262364      15.66706718      -0.00831439       0.00386314      -0.00666174
Ti       4.40397909       3.93442813      16.82002991      -0.00001291      -0.00755152      -0.00835541
Ti       1.46806447       3.93517550      16.85520655      -0.00003571      -0.00076814      -0.00438060
Ti       4.40401297       1.11512465      17.24543961       0.00001942      -0.00072515      -0.01194499
Ti       1.46806027       1.11693854      17.22319878      -0.00005830      -0.00120905      -0.01027240
Ti       0.00009230       5.82999438      18.46291528       0.00053905      -0.00380004      -0.01359202
Ti       2.93593891       5.82995029      18.46285050      -0.00049856      -0.00385659      -0.01361672
Ti       2.94456461       2.86785054      19.05312128       0.00094203       0.00406750      -0.01478578
Ti       5.86349034       2.86784153      19.05314942      -0.00092934       0.00405380      -0.01480516
Ti       4.40405310       0.70134022      20.21642636       0.00002819      -0.00482099      -0.01194448
Ti       1.46805865       0.70042821      20.21362047       0.00002977      -0.00341920      -0.01105291
Ti       1.46805138       4.76327355      20.70928484      -0.00000929      -0.00233857      -0.00644466
Ti       4.40402048       4.76440903      20.71840880       0.00002429       0.00233298      -0.00476208
Ti       2.93529445       2.59099762      21.87646391       0.00024846       0.00006614       0.00669406
Ti       0.00081623       2.59102192      21.87641708      -0.00021781      -0.00004312       0.00661138
Ti       2.93451389       6.55645012      22.46739551       0.00055481      -0.00073918       0.01096487
Ti       0.00149338       6.55641511      22.46727906      -0.00052111      -0.00081880       0.01091997
Ti       4.40395515       4.38798451      23.64738960       0.00002390      -0.00022783       0.01633365
Ti       1.46795119       4.38644269      23.64729464      -0.00000646      -0.00110500       0.01556738
Ti       4.40400913       1.56079820      24.12262976      -0.00008584       0.00079620       0.01762582
Ti       1.46802717       1.56128992      24.12635229       0.00009366       0.00194622       0.01795439
Ti       2.93650292       6.32341885      25.27573503       0.00026724      -0.00323966       0.01967271
Ti      -0.00048788       6.32343818      25.27551906      -0.00026646      -0.00324336       0.01970660
Ti       0.00044050       3.27776465      25.87131664      -0.00001879       0.00370249       0.01532066
Ti       2.93543886       3.27772807      25.87119470      -0.00002693       0.00366329       0.01531332
Ti       1.46781814       1.15428039      27.18202317      -0.00001343      -0.00011045       0.01044333
Ti       4.40392361       1.15475116      27.17955050       0.00006036      -0.00059282       0.00892699
