64
Lattice="5.872 0.0 0.0 0.0 6.890708 0.0 0.0 0.0 27.394398" Properties=species:S:1:pos:R:3:forces:R:3 job_name=T1g-Al-Al-32-d-0.00 GB_type=T1g element=Al system=Al-32-d-0.00 distance=0.0 energy=-492.05042228 stress_kbar_3x3="_JSON [[-10.04173182, -0.00080992, 5.287e-05], [-0.00080993, -10.00702254, -0.75503922], [5.29e-05, -0.75503926, -19.88647938]]" pbc="T T T"
Ti       4.40393597       5.21279423      27.39026770       0.00013303       0.00380498      -0.00163000
Ti       1.46804831       5.21349354      27.39059841      -0.00009245       0.00486194      -0.00312559
Ti       0.00201360       3.19102215       1.28711052       0.00060644      -0.00075939      -0.00204993
Ti       2.93395329       3.19102194       1.28714359      -0.00059182      -0.00092981      -0.00200484
Ti       5.86579429       6.63314395       1.90640510      -0.00054016      -0.00424681      -0.00575977
Ti       2.94218680       6.63318138       1.90643791       0.00070595      -0.00430355      -0.00581710
Ti       4.40404603       1.76884953       3.19333145      -0.00013623       0.00751746       0.00004648
Ti       1.46792378       1.76545966       3.19075626       0.00007733       0.00867146      -0.00227881
Ti       1.46797065       4.59820848       3.41248086       0.00006562       0.00025785       0.00209817
Ti       4.40401419       4.59727620       3.41109766      -0.00018689       0.00227782       0.00011643
Ti       0.00063600       6.72915693       4.72758587      -0.00002464      -0.00292299       0.00326768
Ti       2.93529604       6.72913882       4.72760591       0.00020264      -0.00274266       0.00313355
Ti       2.93361644       2.87590981       5.33248852       0.00006556       0.00467930       0.00302160
Ti       0.00231850       2.87590045       5.33250816      -0.00005722       0.00454750       0.00324249
Ti       4.40397227       5.00734932       6.48697133      -0.00005006       0.00066313       0.00451326
Ti       1.46796454       5.00457586       6.49272337       0.00011940       0.00049153      -0.00247002
Ti       4.40396821       0.94056582       6.96582974      -0.00002678      -0.00169905       0.00549533
Ti       1.46794654       0.93507156       6.97992917       0.00006637       0.00080197       0.00014525
Ti       2.94357008       3.10526090       8.15783069      -0.00225310      -0.00108353       0.00292132
Ti       5.86438514       3.10527241       8.15784789       0.00233991      -0.00116251       0.00284314
Ti       2.93414720       6.02192645       8.76256714       0.00299858      -0.00057552      -0.00147888
Ti       0.00179086       6.02193395       8.76261546      -0.00289839      -0.00066418      -0.00183375
Ti       4.40402153       1.31704772       9.88737754      -0.00014403       0.00410546      -0.00402654
Ti       1.46800724       1.27967600       9.94772184       0.00001204       0.01351542       0.00862843
Ti       4.40402704       4.13924389      10.44788567      -0.00022263       0.00074896       0.01172445
Ti       1.46799008       4.10985404      10.40939692       0.00004741      -0.00112549       0.01009759
Ti       2.95957386       6.25785507      11.59681259      -0.00453524      -0.00253829       0.01290269
Ti       5.84852809       6.25785112      11.59679574       0.00456429      -0.00233883       0.01315101
Ti       2.96910163       2.35239609      12.18482274      -0.00196399       0.00017221       0.00525661
Ti       5.83894296       2.35241223      12.18484393       0.00202970       0.00007538       0.00591241
Ti       1.46804965       4.45466120      13.46831531       0.00002695      -0.00607301      -0.00325566
Ti       4.40409256       4.55777009      13.46449144      -0.00008382       0.01105544      -0.00297302
Al       4.40404916       0.47062359      13.74649832       0.00000363       0.00276888       0.01212651
Ti       1.46803687       0.39821735      13.69497423      -0.00001728      -0.00631934       0.01307682
Ti       5.85666257       2.48284981      14.98455062      -0.00099999      -0.00053027      -0.00421276
Ti       2.95145941       2.48283594      14.98442891       0.00100883      -0.00031630      -0.00358617
Ti       0.03123962       5.89490804      15.56551015       0.00373796      -0.00139011      -0.01177821
Ti       2.90487958       5.89491145      15.56547026      -0.00377798      -0.00138001      -0.01172463
Ti       4.40399952       3.93412218      16.84732083       0.00008703      -0.00595413       0.00534700
Ti       1.46812142       3.90328258      16.87771743      -0.00009943      -0.01069356       0.00811448
Ti       4.40406127       1.08185900      17.07939228       0.00001254      -0.00826805      -0.00492152
Ti       1.46807354       1.06948388      17.09566277      -0.00001774       0.00591331       0.00145980
Ti       0.00393779       5.85374209      18.39525867      -0.00080604       0.00527962       0.00553928
Ti       2.93215706       5.85374254      18.39524279       0.00076580       0.00527893       0.00513485
Ti       2.94776471       2.79407886      19.00903343       0.00062523      -0.00772619      -0.00199757
Ti       5.86035194       2.79405261      19.00899710      -0.00063623      -0.00759601      -0.00212190
Ti       4.40401181       0.67135603      20.15825605       0.00008390      -0.00504578      -0.01228561
Ti       1.46803699       0.67173404      20.17229117      -0.00008829      -0.00418180      -0.01742683
Ti       1.46803180       4.73329368      20.64704731       0.00005551      -0.00272186      -0.00862828
Ti       4.40402070       4.73861000      20.64766580      -0.00008023       0.00092302      -0.01295225
Ti       2.93721801       2.58184376      21.82994963       0.00140510       0.00416281      -0.00431104
Ti       5.87075516       2.58185207      21.82993556      -0.00137530       0.00415027      -0.00423380
Ti       2.93584790       6.53869491      22.43026060       0.00064854      -0.00384147      -0.00615363
Ti       0.00015894       6.53869956      22.43026490      -0.00057735      -0.00387880      -0.00607667
Ti       4.40397348       4.38124607      23.61501561       0.00010540       0.00052870      -0.00156516
Ti       1.46800188       4.38075222      23.61585003      -0.00013211       0.00124915      -0.00346029
Ti       4.40397746       1.56138055      24.09566353       0.00020856       0.00480019       0.00206963
Ti       1.46801141       1.55927326      24.09445006      -0.00025726       0.00265473       0.00179070
Ti       2.93798874       6.32401612      25.25284065      -0.00043544       0.00353196      -0.00052826
Ti       5.86998308       6.32398854      25.25286470       0.00045136       0.00367880      -0.00057568
Ti       0.00086123       3.27992796      25.86149210       0.00022903      -0.00609360       0.00327529
Ti       2.93514034       3.27990026      25.86148360      -0.00031273      -0.00590627       0.00356218
Ti       1.46800955       1.15358318      27.17879482      -0.00002360       0.00096016      -0.00116070
Ti       4.40398964       1.15170647      27.17828095      -0.00004520       0.00088082      -0.00160957
