64
Lattice="5.872 0.0 0.0 0.0 6.890708 0.0 0.0 0.0 27.394398" Properties=species:S:1:pos:R:3:forces:R:3 job_name=T1g-Cu-Cu-41-d-3.41 GB_type=T1g element=Cu system=Cu-41-d-3.41 distance=3.41 energy=-490.86591659 stress_kbar_3x3="_JSON [[-12.54400945, -9.356e-05, 0.00014777], [-9.359e-05, -14.87559487, 4.03892869], [0.00014777, 4.03892865, -23.19318587]]" pbc="T T T"
Ti       4.40401990       5.20818101      27.37135822      -0.00000213       0.00089978      -0.00152224
Ti       1.46801980       5.20943107      27.37403316      -0.00000575       0.00181170      -0.00386358
Ti       0.00472362       3.18368658       1.27161548      -0.00098518      -0.00109415       0.00176452
Ti       2.93125230       3.18377318       1.27141817       0.00096660      -0.00095344       0.00203283
Ti       5.86928709       6.62963982       1.89375282       0.00003047       0.00324256       0.00254610
Ti       2.93867095       6.62960731       1.89369534      -0.00001309       0.00322829       0.00258703
Ti       4.40391257       1.76915208       3.19300956       0.00007455      -0.00572478       0.00291614
Ti       1.46807783       1.76768143       3.19325982      -0.00006958      -0.00622653       0.00262786
Ti       1.46795914       4.58948949       3.40579676       0.00007760      -0.00755474       0.00354259
Ti       4.40390932       4.59076385       3.40442666       0.00006026      -0.00761838       0.00308337
Ti       5.87123633       6.71801231       4.72408837      -0.00003364       0.00266585       0.00151530
Ti       2.93672189       6.71801726       4.72403803       0.00010055       0.00257310       0.00157054
Ti       2.93364269       2.87173514       5.34217838       0.00029169      -0.01073197      -0.00182133
Ti       0.00233926       2.87172688       5.34216465      -0.00027508      -0.01072574      -0.00187112
Ti       4.40401686       4.99762883       6.50298201       0.00001900      -0.00603885      -0.00169924
Ti       1.46802687       4.99943494       6.50190587      -0.00006763      -0.00531976      -0.00096426
Ti       4.40399573       0.92222595       6.97636549       0.00000481      -0.00846898      -0.00258307
Ti       1.46797320       0.92087777       6.98281099      -0.00003637      -0.00800251      -0.00090699
Ti       2.93571122       3.07171371       8.17057054      -0.00060966      -0.00850572       0.00037539
Ti       0.00031378       3.07169477       8.17050051       0.00057280      -0.00847587       0.00037009
Ti       2.93259752       6.00971490       8.77455872      -0.00111058      -0.00848174       0.00133768
Ti       0.00341272       6.00969890       8.77464889       0.00113605      -0.00848159       0.00106757
Ti       4.40403264       1.25960241       9.95392793      -0.00001551      -0.00809174       0.00335074
Ti       1.46799562       1.26996984       9.97122038       0.00004944      -0.00775399       0.00615469
Ti       4.40403624       4.07283721      10.42250353      -0.00002856      -0.00678528       0.00091656
Ti       1.46799765       4.07752049      10.44091363       0.00006250      -0.00605937       0.00152524
Ti       2.93233139       6.18140751      11.59323083      -0.00046269      -0.00558205      -0.00227998
Ti       0.00373824       6.18145493      11.59326454       0.00038577      -0.00568358      -0.00231113
Ti       2.95406088       2.39207649      12.20312456      -0.00309091      -0.01221541      -0.00447097
Ti       5.85397341       2.39205153      12.20323199       0.00304758      -0.01209355      -0.00468763
Ti       1.46792590       4.45533722      13.66769898       0.00019328       0.00024229      -0.00179111
Ti       4.40404900       4.46760279      13.57475738      -0.00013757      -0.00247766      -0.00156914
Ti       4.40410797       0.39880014      13.68241656      -0.00014893      -0.00240350      -0.00315589
Ti       1.46796020       0.41811729      13.63461811       0.00024601       0.00062943      -0.01323764
Ti       5.83338941       2.39191515      15.03835797       0.00063926      -0.00869222      -0.00236899
Ti       2.97463754       2.39189017      15.03835322      -0.00059485      -0.00858828      -0.00246687
Ti       0.07210455       6.06372561      15.64515793       0.00534474       0.01607026      -0.00371295
Ti       2.86391008       6.06374555      15.64515640      -0.00528508       0.01609776      -0.00383401
Ti       4.40414267       4.03318162      16.76256466      -0.00043051       0.00465442       0.00274093
Ti       1.46796048       3.87319645      16.80403821       0.00016480       0.01086782      -0.00427140
Ti       4.40402722       1.19239818      17.23062360      -0.00014435       0.00826712       0.00096085
Cu       1.46796545       1.09807051      17.15620148       0.00001058      -0.00033490      -0.00503121
Ti       0.02526655       5.87639358      18.40846361      -0.00089477       0.01065520       0.00279160
Ti       2.91075888       5.87635824      18.40860339       0.00098715       0.01078169       0.00256830
Ti       2.97606710       2.84750390      18.96087470       0.00420063       0.00852065       0.00325092
Ti       5.83200660       2.84750384      18.96080302      -0.00424041       0.00857452       0.00323436
Ti       4.40399639       0.69090364      20.18761393      -0.00002748       0.00280257       0.00497285
Ti       1.46802310       0.70365158      20.11203572       0.00010627       0.00637599       0.00374678
Ti       1.46801770       4.77628127      20.57848181       0.00010962       0.01018303      -0.00213322
Ti       4.40403648       4.73862676      20.61285351      -0.00006086       0.00765901      -0.00063918
Ti       2.92011342       2.59600343      21.79672752       0.00133878       0.00628869       0.00360851
Ti       0.01597197       2.59595934      21.79672085      -0.00134902       0.00633883       0.00383521
Ti       2.91567066       6.54163259      22.39305404       0.00097927       0.00850517       0.00187087
Ti       0.02040575       6.54156869      22.39311152      -0.00106956       0.00896474       0.00192398
Ti       4.40403304       4.37742507      23.59331041       0.00010474       0.00626162       0.00099741
Ti       1.46798267       4.37857361      23.57254966       0.00001040       0.00591985       0.00282318
Ti       4.40407766       1.55238533      24.05278235       0.00004423       0.00445999      -0.00163490
Ti       1.46800547       1.55813894      24.07514763      -0.00006164       0.00370608      -0.00289166
Ti       2.93810243       6.31962281      25.22279716      -0.00098286       0.00464368      -0.00000836
Ti       5.86998628       6.31964465      25.22261805       0.00084667       0.00476347       0.00004585
Ti      -0.00072647       3.27334854      25.83582150       0.00107259       0.00349009      -0.00143161
Ti       2.93672829       3.27334698      25.83587016      -0.00105390       0.00361644      -0.00136982
Ti       1.46798334       1.14731966      27.15977587      -0.00003583      -0.00252939      -0.00004526
Ti       4.40397147       1.14486868      27.15250454       0.00004528      -0.00206602       0.00191892
