64
Lattice="5.872 0.0 0.0 0.0 6.890708 0.0 0.0 0.0 27.394398" Properties=species:S:1:pos:R:3 job_name=T1g-Cu-Cu-40-d-3.41 GB_type=T1g element=Cu system=Cu-40-d-3.41 distance=3.41 energy=-490.85551529 pbc="T T T"
Ti       4.40411038       5.20852939      27.37541089
Ti       1.46794527       5.20838036      27.37155086
Ti       5.86674432       3.18219061       1.27222484
Ti       2.94116361       3.18214786       1.27221348
Ti       0.00194905       6.63061678       1.89295540
Ti       2.93397248       6.63056131       1.89284280
Ti       4.40393064       1.76753527       3.19370776
Ti       1.46802783       1.76788596       3.19289398
Ti       1.46802355       4.58763315       3.40238982
Ti       4.40391926       4.58772494       3.40327160
Ti       0.00082525       6.71832967       4.72073461
Ti       2.93512207       6.71834315       4.72063920
Ti       2.93821413       2.87063302       5.34422682
Ti       5.86974968       2.87066440       5.34421751
Ti       4.40405279       4.99808586       6.50884926
Ti       1.46794276       4.99547268       6.50860382
Ti       4.40395103       0.91860779       6.98752679
Ti       1.46802008       0.92089575       6.98240399
Ti       2.93635601       3.06966023       8.17464683
Ti       5.87162441       3.06970842       8.17455437
Ti       2.94013217       6.00407623       8.77487881
Ti       5.86782582       6.00416454       8.77483424
Ti       4.40402126       1.26392121       9.97008468
Ti       1.46794938       1.25912599       9.94865980
Ti       4.40398487       4.07526509      10.44015917
Ti       1.46801352       4.06838255      10.42016482
Ti       2.93605237       6.17384993      11.59118500
Ti       5.87195423       6.17379916      11.59098926
Ti       2.91412220       2.39040285      12.20669627
Ti       0.02189138       2.39043170      12.20654554
Ti       1.46797488       4.46314106      13.58091956
Ti       4.40397155       4.45530154      13.67589797
Ti       4.40399182       0.40267950      13.63712275
Ti       1.46804725       0.40100386      13.67716755
Ti       0.03120631       2.38609734      15.04345786
Ti       2.90478950       2.38596438      15.04333043
Ti       5.79253288       6.07036364      15.63789098
Ti       3.01549474       6.07044460      15.63782783
Ti       4.40402313       3.86670307      16.79379017
Ti       1.46803591       4.04090031      16.75511140
Cu       4.40403507       1.10361743      17.16068749
Ti       1.46806582       1.19467693      17.23537761
Ti       5.84464558       5.88645948      18.41463188
Ti       2.96340069       5.88639784      18.41451764
Ti       2.89614731       2.85084298      18.96509787
Ti       0.03997301       2.85083491      18.96506275
Ti       4.40408569       0.69863613      20.11394118
Ti       1.46804337       0.69149051      20.19174734
Ti       1.46809727       4.74720649      20.61376702
Ti       4.40405550       4.78271502      20.57616195
Ti       2.95521785       2.60360805      21.79562383
Ti       5.85289952       2.60362685      21.79559417
Ti       2.95749914       6.54401434      22.38470771
Ti       5.85061921       6.54401333      22.38471226
Ti       4.40405511       4.38014161      23.56321435
Ti       1.46800722       4.37882303      23.58895526
Ti       4.40399865       1.56267403      24.06579949
Ti       1.46808429       1.55457828      24.04895124
Ti       2.93355635       6.31971145      25.22197496
Ti       0.00249610       6.31967669      25.22198192
Ti       0.00169823       3.27500334      25.83743008
Ti       2.93433904       3.27486327      25.83736172
Ti       1.46800423       1.14591789      27.15004072
Ti       4.40396189       1.14669439      27.16314213
