64
Lattice="5.872 0.0 0.0 0.0 6.890708 0.0 0.0 0.0 27.394398" Properties=species:S:1:pos:R:3:forces:R:3 job_name=T1g-Zr-Zr-37-d-1.90 GB_type=T1g element=Zr system=Zr-37-d-1.90 distance=1.9 energy=-495.67385526 stress_kbar_3x3="_JSON [[-2.60528068, 0.00021503, 0.00011379], [0.00021505, -4.23709425, 0.34779454], [0.00011376, 0.34779456, -8.6832114]]" pbc="T T T"
Ti       4.40324168       5.21069520       0.01013519      -0.00218425       0.00037846      -0.00009626
Ti       1.46878273       5.21067160       0.01011525       0.00215650       0.00033673       0.00000009
Ti       5.87194599       3.18856181       1.28976043       0.00002977      -0.00120740      -0.00211323
Ti       2.93604493       3.18881655       1.29082740      -0.00000009      -0.00084513      -0.00094704
Ti       0.00007410       6.63301791       1.90452729      -0.00017272      -0.00082409       0.00296127
Ti       2.93595069       6.63500242       1.90218824       0.00006193      -0.00182453       0.00273635
Ti       4.40672932       1.76539897       3.18359164      -0.00133648      -0.00172771      -0.00171131
Ti       1.46524223       1.76542681       3.18357383       0.00127594      -0.00178470      -0.00156091
Ti       1.46726505       4.59758142       3.39750755       0.00089323      -0.00028131       0.00034002
Ti       4.40473706       4.59758633       3.39751291      -0.00091952      -0.00032560       0.00032656
Ti      -0.00001378       6.72176864       4.71097994       0.00003026      -0.00186184       0.00000432
Ti       2.93596021       6.72338814       4.70389084       0.00007977      -0.00064274       0.00035809
Ti       2.93599170       2.87575118       5.30718056      -0.00001621      -0.00212682       0.00084831
Ti       5.87196219       2.87599813       5.31180565       0.00002688      -0.00092783       0.00014991
Ti       4.39734239       5.00217396       6.46287183      -0.00015391      -0.00090995      -0.00074370
Ti       1.47460193       5.00217050       6.46287369       0.00021244      -0.00090714      -0.00077040
Ti       4.39993463       0.93267958       6.93761724       0.00019175      -0.00060291      -0.00112606
Ti       1.47199948       0.93267307       6.93763958      -0.00017337      -0.00056021      -0.00119304
Ti       2.93598088       3.09408788       8.11656616       0.00002323      -0.00001078      -0.00360555
Ti       5.87198308       3.08352865       8.12381188       0.00001073      -0.00126694      -0.00425433
Ti       2.93598290       6.02125859       8.73205107      -0.00001586       0.00068615      -0.00660544
Ti       5.87198864       6.02667594       8.68868611      -0.00001005      -0.00013897      -0.00516255
Ti       4.39745974       1.28586968       9.89559011      -0.00182570      -0.00151264      -0.00460193
Ti       1.47455347       1.28586789       9.89560946       0.00185694      -0.00148231      -0.00464916
Ti       4.38840853       4.10849913      10.36083794      -0.00187479      -0.00080981      -0.00547619
Ti       1.48359658       4.10850246      10.36085427       0.00185628      -0.00082023      -0.00556417
Ti       2.93602142       6.23849142      11.55312736       0.00005445      -0.00133056      -0.00631819
Ti       0.00002408       6.22156877      11.48160347      -0.00000931      -0.00001500      -0.00560436
Ti       2.93603869       2.40444546      12.15039779      -0.00001664       0.00232438      -0.00085907
Ti       0.00001568       2.39084234      12.10259340       0.00001408      -0.00244952      -0.00288001
Ti       1.42443268       4.49671496      13.40676626       0.00370517       0.00248218       0.00015912
Ti       4.44768620       4.49671812      13.40676326      -0.00373467       0.00247448       0.00012847
Ti       4.48006916       0.48118791      13.60691807      -0.00224738      -0.00043679      -0.00508197
Ti       1.39198967       0.48119644      13.60690265       0.00222003      -0.00055885      -0.00502094
Ti       0.00004595       2.48956956      14.95520235       0.00004795       0.00045634      -0.00312884
Ti       2.93606086       2.46754346      15.02003070      -0.00003313       0.00083359       0.00096150
Ti       0.00003836       5.92491561      15.57806941       0.00001117       0.00020686      -0.00844219
Zr       2.93602425       5.92519833      15.55610698      -0.00005113      -0.00061251      -0.00671623
Ti       4.46646043       3.88001789      16.95427149      -0.00468006       0.00082798       0.00325798
Ti       1.40560891       3.88000576      16.95426404       0.00465794       0.00089519       0.00328497
Ti       4.43203925       1.11073084      17.15849314      -0.00253193       0.00005081       0.00537452
Ti       1.44005286       1.11073000      17.15850556       0.00236346       0.00010353       0.00526918
Ti       0.00002978       5.84233719      18.43331354       0.00001410       0.00556061       0.00333900
Ti       2.93602259       5.84097747      18.48887782       0.00000215       0.00224427       0.00247707
Ti       2.93600753       2.79505028      19.05688750       0.00004604       0.00266603       0.00420147
Ti       0.00001487       2.80378300      19.10331828       0.00002859       0.00018986       0.00602708
Ti       4.40520221       0.66253332      20.22151602       0.00018577      -0.00110961       0.00354742
Ti       1.46682583       0.66253223      20.22152403      -0.00023151      -0.00110555       0.00346253
Ti       1.46325647       4.74449288      20.68879634      -0.00017220       0.00414508       0.00683116
Ti       4.40874750       4.74448747      20.68879590       0.00024584       0.00418323       0.00680410
Ti       2.93600786       2.58024111      21.86215277       0.00002417       0.00190174       0.00720929
Ti       0.00000076       2.58269409      21.88778688       0.00004066       0.00077496       0.00731753
Ti       2.93602037       6.53959542      22.46346101      -0.00002750       0.00056877       0.00726599
Ti       0.00001396       6.53581819      22.47641942      -0.00000228       0.00024738       0.00556961
Ti       4.40101947       4.37979271      23.64818957      -0.00056193      -0.00020754       0.00363774
Ti       1.47100898       4.37979472      23.64819993       0.00059698      -0.00022399       0.00358463
Ti       4.40037416       1.55976010      24.12267164      -0.00088403      -0.00053997       0.00212536
Ti       1.47165243       1.55976067      24.12266282       0.00085156      -0.00049948       0.00213477
Ti       2.93599225       6.32359267      25.27548098       0.00005271       0.00062703      -0.00316160
Ti       0.00002839       6.32460213      25.28213719      -0.00002976      -0.00044337       0.00037641
Ti       0.00000551       3.27625610      25.88041337      -0.00000121      -0.00019660      -0.00221891
Ti       2.93602277       3.27858994      25.88249863       0.00005262      -0.00030923      -0.00254227
Ti       1.46828696       1.15281324      27.19026265       0.00123667      -0.00086722       0.00004454
Ti       4.40375043       1.15281519      27.19027696      -0.00126014      -0.00085825       0.00003952
