64
Lattice="5.872 0.0 0.0 0.0 6.890708 0.0 0.0 0.0 27.394398" Properties=species:S:1:pos:R:3:forces:R:3 job_name=T1g-Zn-Zn-31-d-0.22 GB_type=T1g element=Zn system=Zn-31-d-0.22 distance=0.22 energy=-488.68952724 stress_kbar_3x3="_JSON [[-11.111319, -0.00058486, -0.00021542], [-0.00058482, -11.06034187, -3.28502425], [-0.00021537, -3.2850243, -21.02287803]]" pbc="T T T"
Ti       4.40404909       5.20872415      -0.00488727       0.00004641       0.00283389       0.00353118
Ti       1.46796686       5.20886785      -0.00436215      -0.00000971       0.00345029       0.00173961
Ti       0.00224278       3.18314347       1.28930352      -0.00089382      -0.00315557      -0.00507628
Ti       2.93370797       3.18313982       1.28927222       0.00085876      -0.00315588      -0.00523287
Ti       5.86903736       6.63149973       1.91247615      -0.00074122       0.00327104      -0.00119352
Ti       2.93895434       6.63148599       1.91246154       0.00070537       0.00325621      -0.00109684
Ti       4.40398074       1.76607337       3.20671932      -0.00001453      -0.00135240      -0.00707170
Ti       1.46799330       1.76457031       3.20785560       0.00002366       0.00106780      -0.00586568
Ti       1.46800163       4.59284526       3.42025527      -0.00000195      -0.00271197      -0.00319642
Ti       4.40399115       4.59470683       3.41731005       0.00000152      -0.00320261      -0.00260728
Ti       5.87166228       6.72164287       4.73902241      -0.00058551       0.00193502       0.00403354
Ti       2.93631294       6.72164322       4.73901405       0.00056256       0.00197916       0.00394862
Ti       2.93461580       2.88039365       5.34942549      -0.00094747      -0.00848123       0.00307577
Ti       0.00136901       2.88039906       5.34942732       0.00095016      -0.00847298       0.00309336
Ti       4.40401010       5.00924311       6.50461897       0.00001292       0.00040902       0.00833887
Ti       1.46800438       5.00416826       6.51732548      -0.00001171      -0.00505693       0.00773068
Ti       4.40399004       0.94014934       6.99408170      -0.00003568      -0.00738749       0.00704229
Ti       1.46799881       0.93830902       6.97737947      -0.00000893      -0.00132564       0.00535921
Ti       2.94873833       3.10296198       8.17533606       0.00235436      -0.00450352       0.00443685
Ti       5.85930329       3.10296659       8.17533177      -0.00227318      -0.00448178       0.00442696
Ti       2.94761879       6.04350022       8.77040205       0.00151245      -0.00345145       0.00198770
Ti       5.86039989       6.04350309       8.77042661      -0.00148995      -0.00344125       0.00210308
Ti       4.40401450       1.32943068       9.98832866      -0.00003371      -0.00119176       0.00181845
Ti       1.46801278       1.30687473       9.95218947      -0.00001549      -0.00593482       0.00006105
Ti       4.40400066       4.14838650      10.43783654      -0.00005313      -0.00925987      -0.00260828
Ti       1.46799514       4.13923969      10.38474886      -0.00001698      -0.00266987       0.00193781
Ti       2.90331401       6.29853855      11.60605909      -0.00050295      -0.00248475      -0.00214035
Ti       0.03269722       6.29853568      11.60606676       0.00053062      -0.00252680      -0.00223264
Ti       2.95159562       2.42303763      12.17349138       0.00187607       0.00111583      -0.00576319
Ti       5.85642437       2.42305785      12.17350047      -0.00184433       0.00112767      -0.00603261
Ti       1.46799727       4.62454081      13.36749393       0.00000371      -0.00924191      -0.00521230
Zn       4.40400885       4.53787154      13.42838780      -0.00001761       0.00861797      -0.00251510
Ti       4.40400623       0.43984946      13.76488641      -0.00003444       0.00725011      -0.00695459
Ti       1.46802050       0.57727347      13.80588354      -0.00002765      -0.01727877      -0.00269351
Ti       5.81578051       2.58742915      14.95052824      -0.00258302       0.00014675       0.00206085
Ti       2.99226088       2.58743423      14.95052389       0.00263324       0.00009074       0.00179010
Ti       0.05143422       5.86630559      15.56036319       0.00342507       0.00632566      -0.00359579
Ti       2.88460744       5.86630089      15.56034758      -0.00335966       0.00626044      -0.00342983
Ti       4.40403189       3.87498459      16.94010380      -0.00004397      -0.00412090      -0.00549796
Ti       1.46802245       3.85819605      16.91133016      -0.00002185       0.00719247      -0.00329071
Ti       4.40403256       1.01388009      16.96082712       0.00001845       0.00501379      -0.00103362
Ti       1.46801809       1.02939161      17.03165615      -0.00003695      -0.00073009      -0.00271945
Ti       0.01548313       5.83133122      18.39146642      -0.00218435      -0.00366792       0.00184251
Ti       2.92058862       5.83131733      18.39145214       0.00224366      -0.00379601       0.00166967
Ti       2.94100641       2.73649183      19.00023421       0.00200075       0.00502607       0.00799574
Ti       5.86707947       2.73648206      19.00023175      -0.00196899       0.00502356       0.00797080
Ti       4.40402140       0.63200326      20.15610096      -0.00001282       0.00798191       0.00800302
Ti       1.46803985       0.63010936      20.17124623      -0.00001542       0.00282722       0.00722067
Ti       1.46803873       4.70013575      20.63968285      -0.00000793       0.00768907       0.00389161
Ti       4.40404570       4.70715888      20.62195003       0.00000612       0.00069216      -0.00286568
Ti       2.93861198       2.55743616      21.81894966      -0.00006854      -0.00099453      -0.00141580
Ti       5.86944911       2.55744450      21.81894806       0.00008479      -0.00102667      -0.00143389
Ti       2.93603696       6.51255339      22.42109737       0.00194478       0.00564813      -0.00046523
Ti       0.00004093       6.51255877      22.42108711      -0.00188358       0.00567910      -0.00051810
Ti       4.40398564       4.36173601      23.60517652      -0.00006352       0.00657276       0.00043926
Ti       1.46800824       4.36200598      23.61140911       0.00000409       0.00349631      -0.00101267
Ti       4.40401374       1.54809717      24.08667859       0.00003575       0.00417038      -0.00376568
Ti       1.46803408       1.54607680      24.08756035      -0.00001744       0.00426854      -0.00108218
Ti       2.93732121       6.30953800      25.24546992      -0.00113571       0.00224776      -0.00279079
Ti       5.87067715       6.30955089      25.24545063       0.00113035       0.00225112      -0.00278484
Ti       0.00073668       3.27174339      25.85968459       0.00011690      -0.00360846      -0.00534966
Ti       2.93526385       3.27173773      25.85968047      -0.00012581      -0.00352909      -0.00521710
Ti       1.46796582       1.14350482      27.17508184      -0.00000658       0.00372834       0.00394561
Ti       4.40397315       1.14234011      27.17287778       0.00001354       0.00359669       0.00426726
