64
Lattice="5.872 0.0 0.0 0.0 6.890708 0.0 0.0 0.0 27.394398" Properties=species:S:1:pos:R:3:forces:R:3 job_name=T1g-V-V-46-d-6.48 GB_type=T1g element=V system=V-46-d-6.48 distance=6.48 energy=-496.04509192 stress_kbar_3x3="_JSON [[-11.34538895, 0.00047921, 0.0003155], [0.00047919, -13.64822096, -6.79203213], [0.00031551, -6.79203211, -21.10679638]]" pbc="T T T"
Ti       4.40402799       5.03090493       0.10636619       0.00008293      -0.01125599      -0.01043968
Ti       1.46802840       5.03167531       0.10431159       0.00033749      -0.00994559      -0.00367787
Ti      -0.00044035       2.92172613       1.25799963      -0.00067402      -0.01131940      -0.01017536
Ti       2.93661370       2.92173079       1.25805287       0.00028497      -0.01146734      -0.01015720
Ti       0.00015356       6.73679334       1.87686434       0.00000316      -0.00163662       0.00067874
Ti       2.93601800       6.73682261       1.87688263      -0.00040535      -0.00184577       0.00038316
Ti       4.40418416       1.80140437       3.35548049      -0.00006542      -0.01280365       0.00446329
Ti       1.46788258       1.80208992       3.35493974       0.00042796      -0.00975259       0.01661301
Ti       1.46802264       4.63132078       3.23757671       0.00010153      -0.00612904      -0.00973933
Ti       4.40403725       4.62948964       3.23575169       0.00013256      -0.00668479      -0.00041298
Ti      -0.00051879       6.70677584       4.70330806       0.00247391      -0.01815217      -0.00077590
Ti       2.93659212       6.70677250       4.70326879      -0.00247372      -0.01787308      -0.00073150
Ti       2.93799908       3.13719452       5.32259584      -0.00386134       0.01473478       0.00419190
Ti       5.87012817       3.13722534       5.32262684       0.00381321       0.01486140       0.00465339
Ti       4.40399906       5.20214923       6.56057310      -0.00000037       0.00374764       0.01286529
Ti       1.46810234       5.20233059       6.55918618      -0.00010640      -0.00031637       0.01618059
Ti       4.40403107       1.13606593       6.87125620       0.00003095       0.00831556      -0.00552647
Ti       1.46805906       1.13614718       6.87070903      -0.00004959       0.01001926      -0.00553447
Ti       2.93507373       3.28959470       8.14319024       0.00714872      -0.00079518      -0.00226917
Ti       0.00093619       3.28960372       8.14324659      -0.00710621      -0.00084116      -0.00245486
Ti       2.93589782       6.28751827       8.74985020       0.00052074       0.01293997      -0.00656418
Ti       0.00012937       6.28751340       8.74982295      -0.00049117       0.01294666      -0.00660293
Ti       4.40396997       1.55267059       9.90806632       0.00007418       0.00052212       0.00022324
Ti       1.46796567       1.55225712       9.90693915       0.00008993       0.00682080       0.00110537
Ti       4.40400196       4.37582386      10.40412849       0.00001469       0.00841066      -0.00430181
Ti       1.46799425       4.37690161      10.40433149       0.00004906       0.00897157      -0.00058844
Ti       2.93588447       6.56061991      11.58476229      -0.00431097       0.00674817      -0.00427667
Ti       0.00009026       6.56062695      11.58474263       0.00423076       0.00679119      -0.00416461
Ti       2.93679208       2.58335556      12.18012151      -0.00943226       0.00484943       0.01246832
Ti      -0.00081194       2.58331966      12.18011577       0.00923021       0.00514613       0.01249878
Ti       1.46796281       4.76887396      13.35002596      -0.00001204       0.00221169       0.01676409
Ti       4.40396175       4.76945520      13.34937487       0.00009054      -0.00988421      -0.00812974
Ti       4.40396056       0.70928277      13.85833380       0.00011164       0.00442811      -0.00078156
Ti       1.46796352       0.70509733      13.86066809      -0.00001293       0.00217505      -0.00022541
Ti       0.00094685       2.88020387      15.02938563      -0.00529922       0.00582835       0.00593485
Ti       2.93499816       2.88019910      15.02936963       0.00530483       0.00586312       0.00613666
Ti      -0.00338403       5.82831016      15.61721102       0.01178878       0.00003098       0.00310345
Ti       2.93930964       5.82831516      15.61719230      -0.01171652      -0.00000678       0.00323049
Ti       4.40400429       3.94899578      17.26947756      -0.00011419      -0.00074617      -0.01433533
Ti       1.46798486       3.94566531      17.24016314      -0.00015835      -0.01575276      -0.00227484
Ti       4.40399233       1.11652570      16.83378318      -0.00010656       0.00394545      -0.00321043
Ti       1.46797326       1.09656216      16.86546382      -0.00010781       0.00857096      -0.01312022
Ti       5.81563018       6.06520276      18.47093862      -0.00489029      -0.00266319       0.00614380
Ti       2.99231103       6.06516944      18.47093869       0.00525175      -0.00248660       0.00587532
Ti       2.96796218       2.30651960      19.02895908       0.00252474       0.01187650       0.00177029
Ti       5.83991517       2.30645216      19.02904770      -0.00221130       0.01222666       0.00118578
V        4.40398705       0.47444959      20.41504497      -0.00003838       0.00483201      -0.01707052
Ti       1.46801518       0.36557630      20.40772287      -0.00021515      -0.00660024      -0.01400527
Ti       1.46799893       4.38810643      20.44899900      -0.00019683      -0.00189807      -0.00318631
Ti       4.40396470       4.47492864      20.45717952       0.00003772      -0.01178355      -0.00783121
Ti       2.96109512       2.32922190      21.83434189      -0.00358033       0.01772135       0.00489180
Ti       5.84686255       2.32927996      21.83431716       0.00384868       0.01732336       0.00549358
Ti       2.98971168       6.17846098      22.39552091       0.00456863       0.00165611       0.01393421
Ti       5.81828305       6.17837260      22.39554481      -0.00449643       0.00220525       0.01368268
Ti       4.40402213       4.06638199      23.56403590      -0.00011090       0.00023958       0.00316248
Ti       1.46804713       4.07419417      23.58471929      -0.00007953      -0.01011494      -0.00291720
Ti       4.40398318       1.26558539      24.05955039       0.00021586      -0.01096997       0.00357208
Ti       1.46800003       1.24950416      24.03393536      -0.00003898      -0.00127995      -0.00125605
Ti       2.93843111       6.00926432      25.23636359      -0.00638343      -0.00578156       0.00286143
Ti      -0.00230723       6.00922001      25.23632495       0.00595904      -0.00536622       0.00308766
Ti       0.00338585       3.08911290      25.83141701      -0.00158612      -0.00015529       0.00048539
Ti       2.93272069       3.08912999      25.83139455       0.00131050      -0.00022685       0.00075887
Ti       1.46804336       0.94570296      27.02772889       0.00016313      -0.00956705       0.00139255
Ti       4.40406499       0.95010236      27.03272356       0.00010931      -0.01085770      -0.01305499
