64
Lattice="5.872 0.0 0.0 0.0 6.890708 0.0 0.0 0.0 27.394398" Properties=species:S:1:pos:R:3:forces:R:3 job_name=T1g-Zn-Zn-34-d-1.29 GB_type=T1g element=Zn system=Zn-34-d-1.29 distance=1.29 energy=-488.78625173 stress_kbar_3x3="_JSON [[-11.41254337, -0.0001355, 0.00020323], [-0.00013548, -15.32066633, -1.04776082], [0.00020326, -1.04776075, -16.91568502]]" pbc="T T T"
Ti       4.40570839       5.22394338      27.38381496       0.00035232      -0.00085880      -0.00200055
Ti       1.46631016       5.22399216      27.38381655      -0.00038119      -0.00078966      -0.00207561
Ti       0.00002152       3.20308725       1.29026947      -0.00007773       0.00208852      -0.00083324
Ti       2.93599119       3.20444221       1.28579765       0.00001587       0.00165284       0.00030293
Ti       5.87199431       6.63057034       1.90532069      -0.00006074      -0.00039697      -0.00511697
Ti       2.93602449       6.62887007       1.90757538      -0.00000991      -0.00277513      -0.00408450
Ti       4.39747916       1.76911422       3.18565828      -0.00049347       0.00249979       0.00191228
Ti       1.47448028       1.76909534       3.18572798       0.00053134       0.00246492       0.00195575
Ti       1.47038755       4.59817937       3.41706605      -0.00055147      -0.00154759       0.00143346
Ti       4.40159314       4.59820867       3.41700762       0.00055092      -0.00152500       0.00137333
Ti       5.87195267       6.72767519       4.72158842       0.00015639      -0.00019174       0.00519811
Ti       2.93598997       6.73075684       4.72627357      -0.00009261       0.00015537       0.00335294
Ti       2.93596709       2.86976032       5.33879736      -0.00006215       0.00125332      -0.00125105
Ti       0.00001908       2.87219589       5.32211566       0.00015017       0.00204281       0.00146861
Ti       4.40689035       5.00216779       6.48012622       0.00025018       0.00152708      -0.00042493
Ti       1.46512101       5.00224010       6.48011192      -0.00030397       0.00141939      -0.00046644
Ti       4.40538184       0.93383570       6.96949715       0.00172755      -0.00024933      -0.00292575
Ti       1.46658453       0.93383214       6.96953651      -0.00164414      -0.00037553      -0.00308948
Ti       2.93602425       3.09485805       8.17057138       0.00000870       0.00128881      -0.00368019
Ti       0.00002148       3.10547496       8.14423465      -0.00003389       0.00348731      -0.00134629
Ti       2.93600328       6.01436278       8.72918548      -0.00004313       0.00141922      -0.00161672
Ti       5.87198775       6.00834234       8.75306724       0.00004178       0.00089916      -0.00106372
Ti       4.42322168       1.27459656       9.91388152       0.00018595       0.00164785      -0.00030234
Ti       1.44877814       1.27459478       9.91392759      -0.00019342       0.00157587      -0.00026067
Ti       4.43459270       4.12089984      10.40705151       0.00081485       0.00291695       0.00188455
Ti       1.43738819       4.12085467      10.40699656      -0.00089308       0.00303850       0.00197494
Ti       2.93600414       6.24881485      11.58136618      -0.00001214       0.00186248       0.00634698
Ti       0.00003516       6.31163873      11.63492828       0.00001716       0.00207112       0.00379967
Ti       2.93603984       2.34586883      12.09425932      -0.00009490      -0.00083724      -0.00090083
Ti       5.87197838       2.33444184      12.18169546       0.00008197       0.00035331      -0.00108542
Ti       1.49953490       4.50301294      13.41456722       0.00066723       0.00311351      -0.00093083
Ti       4.37247636       4.50294590      13.41457345      -0.00062408       0.00330609      -0.00087660
Ti       4.37923156       0.48584705      13.75739272       0.00080530       0.00102145       0.00233588
Ti       1.49282369       0.48588266      13.75734757      -0.00087166       0.00106815       0.00237831
Zn       0.00002249       2.53685226      14.99041172       0.00002168       0.00369150       0.00072470
Ti       2.93602572       2.58372858      14.91091608      -0.00002082       0.00390822       0.00082849
Ti       0.00002129       5.82285865      15.57794988      -0.00006747      -0.00670346      -0.00563858
Ti       2.93602953       5.84688039      15.61280567       0.00008321      -0.00276326      -0.00309193
Ti       4.44142020       3.84450346      16.92382141      -0.00132613      -0.00790080       0.00108485
Ti       1.43064376       3.84447957      16.92383272       0.00136647      -0.00807123       0.00097774
Ti       4.40502408       1.06707009      17.07440632      -0.00120927       0.00511024      -0.00262107
Ti       1.46706419       1.06701554      17.07439449       0.00116958       0.00522413      -0.00260513
Ti       0.00002726       5.82666589      18.38951403      -0.00002904       0.00247378       0.00167478
Ti       2.93602547       5.82803659      18.40796689       0.00003571      -0.00198556      -0.00042630
Ti       2.93603968       2.79715136      19.02368389      -0.00007575      -0.00212458      -0.00544868
Ti       0.00004249       2.80770879      19.06527271       0.00000059      -0.00267000      -0.00180860
Ti       4.40257334       0.65165653      20.16595412      -0.00068572      -0.00270997       0.00146413
Ti       1.46948391       0.65170022      20.16595251       0.00073168      -0.00252693       0.00140012
Ti       1.46652950       4.75365179      20.65573185       0.00048281      -0.00208685       0.00019122
Ti       4.40555297       4.75362660      20.65563001      -0.00057855      -0.00204204       0.00042810
Ti       2.93603796       2.57898437      21.82598960       0.00000656      -0.00198786       0.00339875
Ti       0.00001132       2.58008716      21.84718078       0.00003931      -0.00062500       0.00434930
Ti       2.93600639       6.55516480      22.43283279       0.00002046      -0.00394509       0.00169656
Ti       0.00001826       6.55190570      22.43912044      -0.00003409      -0.00279698       0.00130110
Ti       4.40249388       4.38604101      23.62386820      -0.00013726      -0.00248652       0.00003500
Ti       1.46951452       4.38612154      23.62388743       0.00020018      -0.00247288       0.00015284
Ti       4.40125806       1.57607444      24.09312949      -0.00091674       0.00162081       0.00051023
Ti       1.47077817       1.57608082      24.09313908       0.00090683       0.00151756       0.00058271
Ti       2.93603098       6.33424948      25.25394191      -0.00013879       0.00194124       0.00070563
Ti      -0.00001236       6.33536015      25.25577653       0.00023091      -0.00057621       0.00192344
Ti       0.00001642       3.28716339      25.86697523      -0.00004687       0.00142166      -0.00015219
Ti       2.93598892       3.28905321      25.86529364       0.00001007       0.00071187      -0.00264992
Ti       1.46823706       1.16078039      27.18425982       0.00003001      -0.00291877      -0.00022179
Ti       4.40370221       1.16079285      27.18427443       0.00001647      -0.00285382      -0.00015110
