64
Lattice="5.872 0.0 0.0 0.0 6.890708 0.0 0.0 0.0 27.394398" Properties=species:S:1:pos:R:3:forces:R:3 job_name=T1g-Cu-Cu-37-d-1.90 GB_type=T1g element=Cu system=Cu-37-d-1.90 distance=1.9 energy=-491.0447201 stress_kbar_3x3="_JSON [[-14.09203391, 0.00059111, -0.00016494], [0.00059114, -17.71055535, 2.93880065], [-0.00016493, 2.93880063, -21.6335711]]" pbc="T T T"
Ti       4.41061821       5.21905632      27.38551478       0.00040100      -0.00076471       0.00196886
Ti       1.46140018       5.21904607      27.38554306      -0.00038806      -0.00075435       0.00184456
Ti       0.00000372       3.19057579       1.27681866       0.00005029       0.00543526      -0.00393632
Ti       2.93599547       3.19312451       1.28053934       0.00000697       0.00483392      -0.00304049
Ti       5.87199616       6.64230210       1.90229792       0.00000982      -0.00694316      -0.00115587
Ti       2.93601491       6.64118271       1.89809779       0.00000969      -0.00493129       0.00311363
Ti       4.40412141       1.77524291       3.19630420      -0.00221620      -0.00163147      -0.00135306
Ti       1.46788333       1.77522548       3.19629319       0.00221413      -0.00156623      -0.00132843
Ti       1.46747006       4.60016657       3.40654964       0.00003888       0.00119226       0.00114077
Ti       4.40452991       4.60017041       3.40654595      -0.00001386       0.00127614       0.00117018
Ti       0.00000191       6.73033572       4.72257387       0.00001268      -0.00386464       0.00279704
Ti       2.93601024       6.72795622       4.72032251      -0.00002125      -0.00203031      -0.00151267
Ti       2.93598431       2.87789284       5.33581044       0.00002988      -0.00296002      -0.00033531
Ti       0.00000850       2.87826729       5.34133655       0.00000404      -0.00105729       0.00118974
Ti       4.40570278       5.01338146       6.50052471       0.00303611      -0.00364454       0.00066933
Ti       1.46629625       5.01337231       6.50050537      -0.00301154      -0.00364239       0.00067476
Ti       4.40583916       0.92709701       6.97487320       0.00136284      -0.00650826       0.00025923
Ti       1.46616583       0.92709354       6.97486681      -0.00133985      -0.00650809       0.00029262
Ti       2.93599369       3.09229627       8.15838517      -0.00005844      -0.00375334      -0.00756799
Ti      -0.00001099       3.09603491       8.16822075       0.00006837      -0.00432123      -0.01443536
Ti       2.93600628       6.00563131       8.75680584       0.00006206      -0.00453312       0.00505802
Ti       0.00002594       6.00410314       8.77999947      -0.00013155      -0.00572125      -0.00982965
Ti       4.40246741       1.28562013       9.94631154      -0.00359957      -0.01053317       0.00299157
Ti       1.46950003       1.28564180       9.94631070       0.00369699      -0.01057914       0.00298380
Ti       4.40622298       4.07168204      10.43996974      -0.00788191      -0.01137113       0.00227778
Ti       1.46578589       4.07169374      10.43997605       0.00793160      -0.01158909       0.00219107
Ti       2.93599773       6.21548580      11.54489666      -0.00002988      -0.01095685      -0.00085381
Ti      -0.00001433       6.21411342      11.58932327       0.00005029      -0.00372126       0.01777768
Ti       2.93601408       2.34886164      12.21670766      -0.00002604      -0.00443253      -0.00695651
Ti       0.00000287       2.35165422      12.20252822       0.00001238      -0.00277559      -0.00054427
Ti       1.47747825       4.47922035      13.54735277      -0.00531973      -0.00386051       0.00152242
Ti       4.39457010       4.47921902      13.54733568       0.00522793      -0.00378159       0.00152272
Ti       4.35893381       0.35585205      13.68865482       0.00893596      -0.00732483      -0.00711206
Ti       1.51306127       0.35587798      13.68870285      -0.00886148      -0.00734089      -0.00727969
Ti       0.00000239       2.37184320      14.97659563       0.00014444      -0.00344172      -0.00697880
Ti       2.93605073       2.33088259      14.99911781      -0.00016619       0.00195958       0.00028190
Ti       0.00002994       6.08027710      15.69773261      -0.00005999       0.01279940      -0.00012093
Cu       2.93601900       6.04372667      15.61459236       0.00006112       0.01554656      -0.00099518
Ti       4.38522996       3.96909684      16.74331732      -0.00712787      -0.00058622       0.00318145
Ti       1.48681238       3.96908716      16.74331213       0.00706587      -0.00062347       0.00319717
Ti       4.43461128       1.07124820      17.17302461       0.00051290       0.00015676       0.00532790
Ti       1.43746451       1.07124483      17.17300658      -0.00060305       0.00020823       0.00532490
Ti       0.00002903       5.80440128      18.47378631       0.00000525       0.00275334      -0.00279170
Ti       2.93604076       5.78367973      18.37669806      -0.00004331       0.00099462       0.01028080
Ti       2.93601925       2.91090885      18.91805269       0.00002287       0.01213348      -0.01154886
Ti       0.00002541       2.84227217      18.95582569      -0.00006054       0.00738965      -0.00660714
Ti       4.37612556       0.70955447      20.14828992      -0.00342252       0.00863943      -0.00326009
Ti       1.49587341       0.70956749      20.14829033       0.00353262       0.00859685      -0.00327084
Ti       1.49054753       4.74392553      20.65787546       0.00590902       0.00507996      -0.00012104
Ti       4.38148969       4.74393040      20.65787063      -0.00582859       0.00502797      -0.00011531
Ti       2.93603972       2.57888785      21.81240597      -0.00005178       0.00403853       0.00026497
Ti       0.00003763       2.58703661      21.82380463      -0.00006379       0.00305898      -0.00006996
Ti       2.93597769       6.57049365      22.41911914       0.00009493       0.00758221       0.00264153
Ti       5.87198634       6.55996945      22.38837862       0.00002256       0.00726847       0.00681743
Ti       4.40298204       4.39518552      23.59889480       0.00139743       0.00301673       0.00151391
Ti       1.46903132       4.39518832      23.59889744      -0.00136646       0.00299897       0.00151608
Ti       4.40276250       1.56923684      24.08734621       0.00043853       0.00279576      -0.00314280
Ti       1.46926558       1.56923492      24.08733754      -0.00040335       0.00283690      -0.00310463
Ti       2.93601688       6.33042035      25.24958426      -0.00002296       0.00373672       0.00284816
Ti       0.00001362       6.32672123      25.23177544       0.00003009       0.00483974       0.00013508
Ti       0.00001238       3.29278042      25.84752905       0.00004584       0.00439199       0.00301776
Ti       2.93602900       3.28733839      25.85326226      -0.00017142       0.00467973       0.00231870
Ti       1.46575636       1.15661179      27.16526986      -0.00043862       0.00642315       0.00464384
Ti       4.40628669       1.15662046      27.16526871       0.00028442       0.00636239       0.00461142
