64
Lattice="5.872 0.0 0.0 0.0 6.890708 0.0 0.0 0.0 27.394398" Properties=species:S:1:pos:R:3:forces:R:3 job_name=T1g-Zn-Zn-43-d-4.72 GB_type=T1g element=Zn system=Zn-43-d-4.72 distance=4.72 energy=-488.77591015 stress_kbar_3x3="_JSON [[-12.0885278, 0.00055793, -2.555e-05], [0.00055796, -14.14608521, 0.08956714], [-2.558e-05, 0.08956714, -19.02875832]]" pbc="T T T"
Ti       4.40938432       5.22106377      27.38453389       0.00172729       0.00308694      -0.00027708
Ti       1.46258198       5.22100052      27.38454312      -0.00172953       0.00314480      -0.00027667
Ti       5.87193105       3.19252017       1.28264676      -0.00000871       0.00190624       0.00216623
Ti       2.93606571       3.19249023       1.28179370      -0.00004723       0.00192158       0.00197755
Ti       0.00005911       6.63625544       1.90473788      -0.00002849       0.00091829       0.00173868
Ti       2.93592965       6.63512573       1.90067617      -0.00000790       0.00048137      -0.00053373
Ti       4.40071815       1.76964782       3.18958358      -0.00016083       0.00097573      -0.00256281
Ti       1.47122708       1.76965666       3.18958006       0.00017085       0.00102217      -0.00258150
Ti       1.46776224       4.59676794       3.40563393      -0.00009142       0.00103858      -0.00122000
Ti       4.40420198       4.59676155       3.40564573       0.00009142       0.00107604      -0.00122079
Ti      -0.00001934       6.72632302       4.71945221      -0.00002968      -0.00093393      -0.00187598
Ti       2.93594372       6.72448178       4.71799404       0.00002847      -0.00020229      -0.00257606
Ti       2.93597382       2.87643042       5.32571416       0.00001049       0.00150405      -0.00144845
Ti       5.87197869       2.87635580       5.32991088      -0.00005344       0.00079648      -0.00176411
Ti       4.40673940       5.00664524       6.48845575       0.00036279       0.00047987      -0.00123879
Ti       1.46517769       5.00662088       6.48841336      -0.00016262       0.00059375      -0.00097219
Ti       4.40595314       0.93328018       6.96433901       0.00027516       0.00223732       0.00086687
Ti       1.46601254       0.93328792       6.96435623      -0.00041410       0.00223910       0.00087601
Ti       2.93597289       3.09358598       8.14455942      -0.00001066       0.00342270       0.00413507
Ti       5.87199580       3.09675967       8.15347002       0.00009663       0.00211010       0.00232433
Ti       2.93597872       6.02561558       8.73770118      -0.00003974       0.00106189       0.00356330
Ti      -0.00003827       6.02336833       8.75846347       0.00021152       0.00029901       0.00850015
Ti       4.40017020       1.29758571       9.93217252       0.00246857       0.00102735       0.00499712
Ti       1.47183643       1.29759815       9.93218254      -0.00248405       0.00095827       0.00493921
Ti       4.40551424       4.11635370      10.41081991       0.00150890       0.00326490       0.00610807
Ti       1.46646047       4.11634135      10.41083045      -0.00146184       0.00328302       0.00608476
Ti       2.93602361       6.25288091      11.55478573       0.00001753       0.00572347       0.00145232
Ti       0.00005685       6.24986550      11.59409770      -0.00004020       0.00250088      -0.00061519
Ti       2.93602433       2.39217503      12.19414869      -0.00001610      -0.00176578      -0.00219238
Ti       0.00002467       2.39314184      12.15980458       0.00005899       0.00297564      -0.00327593
Ti       1.49348681       4.51477205      13.47159507      -0.00301633       0.00211461      -0.00550765
Ti       4.37864978       4.51475695      13.47159157       0.00307586       0.00220019      -0.00547748
Ti       4.34671336       0.47374647      13.71371561       0.00090615      -0.00091555       0.01031480
Ti       1.52537730       0.47372848      13.71371085      -0.00086262      -0.00077767       0.01033882
Ti       0.00007988       2.47716774      15.00225380      -0.00002296       0.00164217      -0.00235275
Ti       2.93606549       2.51641501      15.04980087       0.00001622       0.00693748      -0.00230232
Ti       0.00008043       5.90582255      15.52896037       0.00001892      -0.00650701      -0.00785620
Ti       2.93602453       5.89112020      15.63219218       0.00003372      -0.00684119      -0.00241163
Ti       4.45446178       3.92356262      16.91165914       0.00203625      -0.00602145       0.00852865
Ti       1.41766746       3.92356102      16.91165540      -0.00225050      -0.00602693       0.00849208
Ti       4.40278534       1.03617078      17.09691425       0.00267291      -0.00977978      -0.00331010
Ti       1.46934599       1.03617755      17.09690339      -0.00266696      -0.00975397      -0.00322613
Ti       0.00005461       5.78631687      18.36110419      -0.00001366       0.00822343       0.00887809
Zn       2.93604153       5.80404199      18.44042536       0.00004078       0.00640725      -0.00695119
Ti       2.93605803       2.82430537      19.01802707      -0.00000580      -0.01253779       0.00216999
Ti       0.00005404       2.73466324      19.03138548      -0.00007841      -0.00209194      -0.00190120
Ti       4.36653698       0.64171471      20.16798986      -0.00176454      -0.00620450      -0.00173447
Ti       1.50550573       0.64171340      20.16796906       0.00174771      -0.00620285      -0.00169752
Ti       1.47354238       4.74106261      20.65000284      -0.00178019      -0.00243970       0.00146994
Ti       4.39852731       4.74106567      20.64999129       0.00175058      -0.00243171       0.00149400
Ti       2.93599319       2.59386106      21.79878359       0.00004003      -0.00144264      -0.00463149
Ti      -0.00000418       2.58166694      21.82638500       0.00000484       0.00038835      -0.00160655
Ti       2.93599204       6.55732324      22.46057832       0.00002234      -0.00295000      -0.00320830
Ti       0.00000369       6.55007751      22.42043979       0.00002175      -0.00186284      -0.00627428
Ti       4.40678286       4.37682715      23.60049457      -0.00161399       0.00218748      -0.00393270
Ti       1.46520308       4.37683307      23.60049310       0.00158883       0.00211317      -0.00393151
Ti       4.40128245       1.57424112      24.09333433       0.00144296      -0.00136326      -0.00180195
Ti       1.47069458       1.57423123      24.09331953      -0.00143473      -0.00132124      -0.00173285
Ti       2.93596253       6.32623930      25.25952301       0.00001802       0.00168019      -0.00659773
Ti       0.00001566       6.32231668      25.23516596      -0.00003187       0.00379551       0.00084590
Ti       5.87198489       3.28985011      25.85750147      -0.00005007      -0.00216186      -0.00089044
Ti       2.93600441       3.28802206      25.85989558      -0.00005088       0.00146009      -0.00032766
Ti       1.46635196       1.15624196      27.17412995      -0.00091629       0.00165209       0.00098737
Ti       4.40567908       1.15624590      27.17412271       0.00087986       0.00168431       0.00104647
