64
Lattice="5.872 0.0 0.0 0.0 6.890708 0.0 0.0 0.0 27.394398" Properties=species:S:1:pos:R:3:forces:R:3 job_name=T1g-Cu-Cu-35-d-1.29 GB_type=T1g element=Cu system=Cu-35-d-1.29 distance=1.29 energy=-491.05210562 stress_kbar_3x3="_JSON [[-13.83677145, -0.00037218, -6.501e-05], [-0.00037221, -17.37485345, -3.54065388], [-6.504e-05, -3.54065387, -21.332646]]" pbc="T T T"
Ti       4.40474253       5.21904418      27.39148561      -0.00075363      -0.00574676       0.00891388
Ti       1.46731851       5.21903804      27.39147897       0.00060222      -0.00573055       0.00899233
Ti       0.00002639       3.19573798       1.28448576      -0.00002440      -0.01541874      -0.00148466
Ti       2.93606230       3.19520535       1.28713261      -0.00006498      -0.01540568      -0.00031047
Ti       0.00005732       6.64785431       1.90964333      -0.00003998       0.01190324      -0.00080981
Ti       2.93600047       6.64970141       1.90562291       0.00000200       0.01160644      -0.00076022
Ti       4.40929907       1.78488039       3.19773118       0.00082261       0.00450201       0.01331984
Ti       1.46275811       1.78488860       3.19773835      -0.00077508       0.00458300       0.01333456
Ti       1.46598130       4.61551277       3.41145574       0.00003073       0.00236268      -0.00711597
Ti       4.40605367       4.61550515       3.41146115       0.00002265       0.00239749      -0.00711764
Ti       0.00002149       6.75237275       4.73340693      -0.00011415      -0.00198247       0.00218668
Ti       2.93601624       6.74677537       4.72786785       0.00000737      -0.00093179       0.00566662
Ti       2.93602766       2.90511355       5.33023686      -0.00002301       0.01301336       0.00478433
Ti       0.00000117       2.90180228       5.34706275       0.00003685       0.01041987       0.00224340
Ti       4.40373058       5.03432901       6.49301244      -0.00002800       0.00610286       0.00366693
Ti       1.46829678       5.03432891       6.49301666       0.00011336       0.00604817       0.00361432
Ti       4.40352032       0.97237392       6.97988884       0.00037484       0.00515989      -0.00251292
Ti       1.46848992       0.97237211       6.97989550      -0.00028144       0.00519630      -0.00257891
Ti       2.93601927       3.15087914       8.16171435       0.00002657       0.00412453      -0.00204561
Ti       0.00002216       3.14096359       8.19039076      -0.00003033       0.00401091      -0.00234998
Ti       2.93602093       6.04854438       8.76594915       0.00002707       0.00293286      -0.00253203
Ti       0.00002112       6.05579451       8.75721273      -0.00001984       0.00234197       0.00054418
Ti       4.38165204       1.32525582       9.91936086      -0.00090824       0.00307352      -0.00226880
Ti       1.49040804       1.32525909       9.91937505       0.00091611       0.00306554      -0.00227181
Ti       4.37812719       4.18451977      10.43518080       0.00106671       0.00219675      -0.00020823
Ti       1.49392500       4.18451824      10.43518283      -0.00104644       0.00219632      -0.00021462
Ti       2.93602978       6.38935518      11.66686122       0.00001231       0.00251414       0.00352183
Ti       0.00002326       6.32123681      11.63058720      -0.00003124       0.00093331       0.00278675
Ti       2.93604044       2.35512662      12.20004021      -0.00011465      -0.00326969       0.00275839
Ti       0.00002708       2.37559805      12.10562349      -0.00005649      -0.00339457       0.00727539
Ti       1.43850162       4.53605386      13.39680211       0.00023258       0.00062562      -0.00085893
Ti       4.43353379       4.53607343      13.39679056      -0.00019745       0.00053275      -0.00078889
Ti       4.37858038       0.53783581      13.85829465      -0.00393995       0.00199491       0.00488522
Ti       1.49345058       0.53783506      13.85827433       0.00395504       0.00194900       0.00494027
Ti       0.00000077       2.66594105      14.88338374      -0.00001479      -0.00362040       0.00051863
Cu       2.93599198       2.62616137      14.95837184       0.00009063       0.00386527       0.00134888
Ti       0.00001709       5.79612066      15.60398123      -0.00002198       0.00437850       0.00000249
Ti       2.93600385       5.74612939      15.58649357       0.00001980       0.00453153      -0.01230828
Ti       4.35807166       3.77816137      16.90771934      -0.00053369      -0.01232832       0.00177951
Ti       1.51392191       3.77815466      16.90772288       0.00055250      -0.01232719       0.00170914
Ti       4.39316199       1.01093500      17.02354992      -0.00183404       0.00278202      -0.00652121
Ti       1.47886763       1.01093068      17.02353032       0.00184291       0.00277431      -0.00652601
Ti      -0.00000072       5.77257477      18.38604193      -0.00004153       0.00812728       0.00040220
Ti       2.93599434       5.76795287      18.37247994       0.00002820       0.01117111       0.00175999
Ti       2.93598705       2.73215507      19.03942284       0.00008468      -0.00918254       0.00013053
Ti       0.00001670       2.73307268      18.99539769      -0.00014945      -0.00619795      -0.00555270
Ti       4.40737744       0.58873870      20.14718500      -0.00096302       0.00050660       0.00196732
Ti       1.46459411       0.58874854      20.14718140       0.00094280       0.00041438       0.00199223
Ti       1.46859425       4.69802050      20.63526230       0.00007698      -0.00232623      -0.00140937
Ti       4.40337741       4.69801370      20.63527923      -0.00006494      -0.00237566      -0.00154979
Ti       2.93597924       2.52980933      21.82866787      -0.00000458      -0.00148359      -0.00226031
Ti       5.87198607       2.52730473      21.80618186       0.00001778       0.00040375       0.00058261
Ti       2.93596665       6.51021165      22.42864036       0.00008457      -0.00086281      -0.00083544
Ti       5.87198238       6.51434442      22.42001960       0.00000724      -0.00343000      -0.00100909
Ti       4.40599743       4.34940952      23.60685601      -0.00027107      -0.00400332      -0.00309483
Ti       1.46596699       4.34940631      23.60684475       0.00030081      -0.00395978      -0.00310273
Ti       4.40561236       1.54838252      24.08859252       0.00022719      -0.00168574      -0.00363024
Ti       1.46637508       1.54838793      24.08858941      -0.00023881      -0.00168912      -0.00367015
Ti       2.93600943       6.30672213      25.24660369      -0.00000781      -0.00820642       0.00133385
Ti       0.00001523       6.30652364      25.24307094       0.00001131      -0.00708859      -0.00180763
Ti       5.87198433       3.27991996      25.86101521       0.00005239      -0.00402757       0.00002510
Ti       2.93599372       3.27780681      25.86251469      -0.00001850      -0.00513480      -0.00004593
Ti       1.46742510       1.15205982      27.17109371       0.00016822      -0.00646821      -0.00871864
Ti       4.40458799       1.15206416      27.17110374      -0.00014348      -0.00646369      -0.00871553
