64
Lattice="5.872 0.0 0.0 0.0 6.890708 0.0 0.0 0.0 27.394398" Properties=species:S:1:pos:R:3:forces:R:3 job_name=T1g-Zr-Zr-36-d-1.90 GB_type=T1g element=Zr system=Zr-36-d-1.90 distance=1.9 energy=-495.67149514 stress_kbar_3x3="_JSON [[-2.76625308, 0.00099159, 0.00059154], [0.00099159, -4.5053371, 0.40213646], [0.00059156, 0.40213645, -8.65925208]]" pbc="T T T"
Ti       4.40427356       5.21409952      27.39237186      -0.00308122      -0.00049766       0.01071012
Ti       1.46771134       5.21398242      27.39238248       0.00303618      -0.00054382       0.01064072
Ti       5.87186048       3.19100175       1.28380258       0.00002202       0.00611488       0.00065847
Ti       2.93611679       3.18927310       1.28635300      -0.00002210       0.00649051       0.00038889
Ti       0.00011819       6.63481539       1.90314463       0.00001378      -0.00542916      -0.00220809
Ti       2.93586667       6.63557472       1.90312027      -0.00006510      -0.00625278      -0.00524253
Ti       4.40515369       1.76890381       3.19104248      -0.00102177       0.00087459      -0.01068585
Ti       1.46672855       1.76900635       3.19104903       0.00097100       0.00086914      -0.01068124
Ti       1.46772885       4.59665825       3.40410544      -0.00002409       0.00146377      -0.00635154
Ti       4.40427244       4.59666804       3.40411631       0.00002633       0.00151709      -0.00631066
Ti      -0.00003398       6.72600899       4.71534916      -0.00001663      -0.00636330      -0.00258835
Ti       2.93592108       6.72420144       4.71805390       0.00006682      -0.00522584      -0.00159168
Ti       2.93597980       2.87668090       5.32410102       0.00004211       0.00518358       0.00139752
Ti       5.87191228       2.87833957       5.32612074      -0.00001408       0.00580061       0.00034251
Ti       4.40842815       5.00448388       6.47936813      -0.00266100      -0.00127491       0.00196856
Ti       1.46347797       5.00446525       6.47939686       0.00261808      -0.00136442       0.00198840
Ti       4.40684973       0.93447281       6.95302542      -0.00154266      -0.00301588       0.00372654
Ti       1.46510045       0.93444833       6.95301230       0.00154048      -0.00296137       0.00366526
Ti       2.93592930       3.08446501       8.13548971       0.00007056       0.00607155       0.00040484
Ti      -0.00006715       3.09420271       8.13361624      -0.00009140       0.00539664       0.00429358
Ti       2.93597161       6.02897263       8.69802559       0.00007162      -0.00539720      -0.00427050
Ti      -0.00003526       6.02672077       8.74707082      -0.00007293      -0.00803417      -0.00064572
Ti       4.41061003       1.28590994       9.90477927       0.00107058       0.00299539       0.00030682
Ti       1.46140110       1.28591228       9.90473529      -0.00111249       0.00306582       0.00037631
Ti       4.41978191       4.11069916      10.36999183       0.00364986      -0.00105918      -0.00073087
Ti       1.45218578       4.11071958      10.37002308      -0.00363800      -0.00106140      -0.00067664
Ti       2.93604268       6.22239303      11.49179457      -0.00002458      -0.00842459       0.00511805
Ti       0.00004892       6.23933689      11.56101555       0.00000518      -0.00617985       0.00894713
Ti       2.93599079       2.38889124      12.10932420      -0.00011639       0.01024303       0.00778122
Ti       0.00005805       2.40613322      12.16034505       0.00015918       0.00651184       0.00925401
Ti       1.51027777       4.49318040      13.40941736      -0.00203107      -0.00995364       0.00769399
Ti       4.36192506       4.49318563      13.40939358       0.00204139      -0.00988547       0.00782106
Ti       4.33336103       0.48638642      13.60747876       0.01154520       0.00366473       0.00596612
Ti       1.53872793       0.48636156      13.60751606      -0.01155830       0.00363296       0.00582630
Ti       0.00016074       2.46425651      15.03036747      -0.00006011       0.01202567       0.00036279
Ti       2.93609412       2.48642984      14.95746445       0.00002371       0.01611298       0.00114057
Zr      -0.00000552       5.92177041      15.55349824       0.00009979      -0.00272070      -0.00177365
Ti       2.93602816       5.91876046      15.56822969       0.00010060      -0.00906582      -0.00120325
Ti       4.33973036       3.87589879      16.95501943       0.00555538      -0.00275061      -0.01314407
Ti       1.53236849       3.87586618      16.95499432      -0.00561280      -0.00287559      -0.01311303
Ti       4.37843905       1.10624399      17.15961200       0.00610364       0.00485107      -0.00444357
Ti       1.49380747       1.10625434      17.15961735      -0.00608723       0.00492308      -0.00438515
Ti       0.00004404       5.84101242      18.48205066       0.00003479      -0.00378760      -0.00857639
Ti       2.93606975       5.84285140      18.42716468      -0.00002041      -0.00071839       0.00092887
Ti       2.93601628       2.80198247      19.10120127      -0.00000049       0.00217746      -0.00722850
Ti       0.00006582       2.79032885      19.05130933       0.00000426      -0.00001571      -0.01178061
Ti       4.40123989       0.65878779      20.20975860      -0.00133896      -0.00533734      -0.00455757
Ti       1.47073738       0.65875192      20.20976584       0.00132092      -0.00536319      -0.00457995
Ti       1.47508065       4.74530973      20.68199413       0.00271840       0.00565968      -0.00216839
Ti       4.39701491       4.74528066      20.68198186      -0.00271310       0.00553345      -0.00216196
Ti       2.93600384       2.57912358      21.88132431       0.00000958      -0.00051650       0.00087775
Ti      -0.00000581       2.57936986      21.85011083      -0.00002270      -0.00029557       0.00139799
Ti       2.93595255       6.53663066      22.46731013       0.00004077      -0.00039232      -0.00203665
Ti      -0.00002050       6.53734763      22.44920907      -0.00005606      -0.00139826      -0.00212416
Ti       4.40696390       4.37755411      23.63492198       0.00009438       0.00044322       0.00016889
Ti       1.46507219       4.37755023      23.63495428      -0.00011787       0.00036077       0.00027170
Ti       4.40761413       1.56087697      24.10667606      -0.00104244      -0.00044534       0.00466549
Ti       1.46428627       1.56088262      24.10669327       0.00100969      -0.00032190       0.00471117
Ti       2.93599318       6.32395358      25.26806462       0.00003996      -0.00287102       0.00341610
Ti       0.00005857       6.32388970      25.25493146      -0.00002011      -0.00238149       0.00114650
Ti       5.87196881       3.28018174      25.86763424       0.00007299       0.00264342       0.00129831
Ti       2.93604802       3.27827876      25.86945273      -0.00005906       0.00450538       0.00287304
Ti       1.46788652       1.15191596      27.17890308       0.00071093      -0.00244892       0.00636314
Ti       4.40425708       1.15195326      27.17891324      -0.00064497      -0.00250137       0.00636184
