64
Lattice="5.872 0.0 0.0 0.0 6.890708 0.0 0.0 0.0 27.394398" Properties=species:S:1:pos:R:3 job_name=T1g-Cu-Cu-42-d-4.72 GB_type=T1g element=Cu system=Cu-42-d-4.72 distance=4.72 energy=-490.97019049 pbc="T T T"
Ti       4.39531481       5.22500206      27.36976861
Ti       1.47668500       5.22499391      27.36972730
Ti       0.00000960       3.19753118       1.27260240
Ti       2.93600071       3.19615127       1.26911985
Ti       0.00000006       6.64022766       1.89129807
Ti       2.93600442       6.64256106       1.89608484
Ti       4.40705881       1.77927521       3.18707936
Ti       1.46494556       1.77927181       3.18706545
Ti       1.46853194       4.60303328       3.40188461
Ti       4.40345930       4.60305130       3.40188635
Ti      -0.00000190       6.73394726       4.71839170
Ti       2.93599967       6.73584214       4.72035513
Ti       2.93602356       2.88603507       5.33584330
Ti       0.00000052       2.88683339       5.33119447
Ti       4.40074954       5.02011160       6.49571449
Ti       1.47126588       5.02013023       6.49571578
Ti       4.40171714       0.94586502       6.97299136
Ti       1.47028397       0.94586547       6.97299661
Ti       2.93602111       3.11674596       8.16640664
Ti       0.00002164       3.11228849       8.15607941
Ti       2.93601345       6.03570196       8.77502192
Ti       0.00001854       6.03802942       8.74989684
Ti       4.40822804       1.31674212       9.93673007
Ti       1.46381082       1.31673225       9.93669986
Ti       4.40382200       4.13858479      10.43370537
Ti       1.46822544       4.13856398      10.43369700
Ti       2.93604256       6.28805682      11.62075163
Ti       0.00001720       6.29460317      11.57910139
Ti       2.93603169       2.39624300      12.17586042
Ti       0.00000920       2.38623171      12.21578623
Ti       1.43816884       4.52713515      13.45818524
Ti       4.43389518       4.52712724      13.45818388
Ti       4.46486261       0.48803819      13.78643067
Ti       1.40717911       0.48803415      13.78643941
Ti      -0.00000009       2.57762096      15.08023678
Ti       2.93601374       2.50703604      15.01586231
Ti       0.00003585       5.82545870      15.67567859
Ti       2.93602987       5.86267733      15.54504460
Ti       4.34235906       3.90791560      16.97042151
Ti       1.52963660       3.90793115      16.97043914
Ti       4.39606491       1.01137110      17.06996074
Ti       1.47598857       1.01136970      17.06995665
Cu       0.00001024       5.79349778      18.45367735
Ti       2.93602108       5.79107973      18.36274715
Ti       2.93599867       2.68803761      19.04094142
Ti       0.00000391       2.78272416      19.00107916
Ti       4.45930009       0.61014982      20.13849867
Ti       1.41271397       0.61017885      20.13851333
Ti       1.45737081       4.71290797      20.61712998
Ti       4.41462441       4.71291782      20.61713126
Ti       2.93599549       2.56736294      21.81533089
Ti       0.00004653       2.56936663      21.76693601
Ti       2.93603092       6.53482575      22.38020191
Ti       0.00000742       6.53893240      22.42989580
Ti       4.40480303       4.36661839      23.57542206
Ti       1.46720955       4.36663800      23.57542258
Ti       4.40883747       1.56711270      24.07181062
Ti       1.46315674       1.56709233      24.07180844
Ti       2.93597530       6.31692349      25.20853307
Ti       0.00001226       6.32002544      25.23604883
Ti       5.87198378       3.28763589      25.84570278
Ti       2.93600371       3.29039664      25.83538806
Ti       1.47068092       1.15773245      27.15727045
Ti       4.40131509       1.15772472      27.15727544
