64
Lattice="5.872 0.0 0.0 0.0 6.890708 0.0 0.0 0.0 27.394398" Properties=species:S:1:pos:R:3:forces:R:3 job_name=T1g-Cu-Cu-43-d-4.72 GB_type=T1g element=Cu system=Cu-43-d-4.72 distance=4.72 energy=-490.98085359 stress_kbar_3x3="_JSON [[-13.04827668, -0.0028636, -0.00126988], [-0.00286363, -17.48150173, -3.16064093], [-0.00126991, -3.16064094, -22.32891591]]" pbc="T T T"
Ti       4.41384865       5.22626703      27.37194202      -0.00066990       0.00335425       0.00825398
Ti       1.45828464       5.22625314      27.37183848       0.00058053       0.00311943       0.00811624
Ti       0.00018281       3.19207606       1.27192130      -0.00007480      -0.00317130       0.01218906
Ti       2.93594884       3.19431062       1.27549304       0.00005360      -0.00179155       0.00717565
Ti       5.87194766       6.65369300       1.89625200       0.00006907      -0.00179817      -0.00726662
Ti       2.93615572       6.65096565       1.89198318       0.00014105       0.00024788      -0.00543143
Ti       4.40120089       1.78526417       3.19556784      -0.00059948       0.00054532      -0.00958078
Ti       1.47082909       1.78528327       3.19551045       0.00054516       0.00072006      -0.00963317
Ti       1.46693214       4.61108620       3.39952357      -0.00005568      -0.00462843      -0.00712788
Ti       4.40497711       4.61108150       3.39956893       0.00015821      -0.00455998      -0.00718539
Ti      -0.00001965       6.74546562       4.71927231      -0.00004988       0.00044663      -0.01030024
Ti       2.93600235       6.74255017       4.71898903      -0.00006584      -0.00028596      -0.00994357
Ti       2.93596824       2.90140979       5.33194374      -0.00001173       0.00092574      -0.00326400
Ti       0.00000282       2.90073783       5.33792030       0.00003690       0.00130837      -0.00443126
Ti       4.40878765       5.03458610       6.49250686       0.00066624      -0.00269821       0.00249343
Ti       1.46328652       5.03469875       6.49243679      -0.00058478      -0.00249693       0.00229210
Ti       4.40755435       0.96458478       6.96948785       0.00041865       0.00102035       0.00445498
Ti       1.46441620       0.96471473       6.96941855      -0.00038888       0.00114329       0.00449362
Ti       2.93600037       3.13138920       8.15398433      -0.00007040       0.00353353       0.00492852
Ti      -0.00007812       3.13758412       8.16571723       0.00004356       0.00408751       0.00515583
Ti       2.93617380       6.05750047       8.74424068       0.00034816      -0.00257656       0.00077615
Ti      -0.00007180       6.05551425       8.77218349      -0.00012388      -0.00377110       0.00633150
Ti       4.39856123       1.33426419       9.92383194      -0.00043366      -0.00151661       0.00537184
Ti       1.47345810       1.33420669       9.92358826       0.00042295      -0.00128084       0.00509248
Ti       4.40341437       4.16389499      10.43297597       0.00161311       0.00106538       0.00310800
Ti       1.46853954       4.16386061      10.43290061      -0.00166571       0.00049054       0.00317670
Ti       2.93594977       6.32555803      11.58075370       0.00014467      -0.00349788      -0.00187369
Ti      -0.00002882       6.31804183      11.62213983      -0.00009846      -0.00305264       0.00179437
Ti       2.93612887       2.38857540      12.20779714       0.00008278       0.00255758      -0.00356634
Ti       0.00002809       2.40271736      12.16896489       0.00007207       0.00318034      -0.00659763
Ti       1.49597098       4.53818787      13.42775036       0.00179550      -0.00296607      -0.00020485
Ti       4.37599975       4.53835441      13.42815424      -0.00172282      -0.00288476      -0.00040722
Ti       4.34967319       0.50200244      13.81268065      -0.00348008      -0.00263920       0.00058098
Ti       1.52262597       0.50210499      13.81282340       0.00361360      -0.00287672       0.00062830
Ti      -0.00015980       2.54761425      15.01742502      -0.00014863       0.00328613       0.00822248
Ti       2.93629645       2.62121127      15.08032592       0.00030795      -0.00108698       0.00039930
Ti       0.00026448       5.81513488      15.54533584      -0.00001895       0.00084531       0.00251263
Ti       2.93537463       5.77765162      15.65845764      -0.00032243      -0.00043613      -0.00301471
Ti       4.46382124       3.89479407      17.01181943      -0.00054541       0.00385690      -0.00112451
Ti       1.40800658       3.89483091      17.01191975       0.00018719       0.00417268      -0.00096712
Ti       4.41846753       0.99110920      17.03887366      -0.00029230      -0.00034537       0.00186254
Ti       1.45361324       0.99138124      17.03906163       0.00035501      -0.00006867       0.00212779
Ti       0.00012417       5.78896830      18.35907298      -0.00007070      -0.00308437      -0.00371818
Cu       2.93610101       5.79380401      18.45118842      -0.00004559       0.00228400       0.00187632
Ti       2.93595019       2.73115769      19.01155993      -0.00023379      -0.00121294       0.00448133
Ti       0.00013572       2.64479075      19.04961729       0.00022727       0.00021832      -0.00650982
Ti       4.34722864       0.57968281      20.15456678      -0.00282763       0.00075716      -0.00475555
Ti       1.52481304       0.57955549      20.15468679       0.00282670       0.00060681      -0.00457389
Ti       1.47793938       4.68390940      20.61029999       0.00066568      -0.00299291      -0.00815868
Ti       4.39424478       4.68371652      20.61032048      -0.00050739      -0.00321530      -0.00823904
Ti       2.93576955       2.54968475      21.77223868      -0.00005461      -0.00204068      -0.00781108
Ti       0.00009627       2.55164435      21.82341884      -0.00021300      -0.00098326       0.00366833
Ti       2.93611906       6.51690567      22.43809823       0.00014248       0.00434830      -0.00068609
Ti       0.00008862       6.51485999      22.38164414       0.00001417       0.00140378      -0.00428555
Ti       4.40372060       4.35395305      23.57625827       0.00065700       0.00254293      -0.00193106
Ti       1.46819139       4.35378560      23.57625797      -0.00070971       0.00259691      -0.00198622
Ti       4.39914454       1.55570245      24.07437879      -0.00097187       0.00203337       0.00181056
Ti       1.47283804       1.55546035      24.07429440       0.00094907       0.00159883       0.00161230
Ti       2.93607725       6.31121173      25.23397072       0.00003484       0.00198222       0.00237193
Ti      -0.00008320       6.30661927      25.19984821      -0.00011387       0.00261014      -0.00363543
Ti       5.87193360       3.29075423      25.83498214      -0.00001295       0.00002138       0.00637552
Ti       2.93593814       3.28625686      25.84933194      -0.00001351       0.00216542       0.01181757
Ti       1.46447970       1.15543821      27.15083103       0.00008033      -0.00062178       0.00632777
Ti       4.40745978       1.15547525      27.15091338      -0.00005520      -0.00049548       0.00633089
