64
Lattice="5.872 0.0 0.0 0.0 6.890708 0.0 0.0 0.0 27.394398" Properties=species:S:1:pos:R:3:forces:R:3 job_name=T1g-V-V-45-d-5.32 GB_type=T1g element=V system=V-45-d-5.32 distance=5.32 energy=-495.94358014 stress_kbar_3x3="_JSON [[-11.99513662, -0.01325031, 0.01651646], [-0.0132503, -11.50746116, -2.73320016], [0.01651647, -2.73320016, -22.49122758]]" pbc="T T T"
Ti       4.40218371       5.08853610       0.08615218       0.00039563      -0.00632260      -0.00225039
Ti       1.47000732       5.08862099       0.08607456      -0.00026703      -0.00648150      -0.00217140
Ti       0.00006621       2.98506478       1.26336819       0.00025541      -0.00401296      -0.01012008
Ti       2.93621474       2.98608618       1.24613968      -0.00045449      -0.00490380       0.00703574
Ti       5.87191379       6.74807729       1.87470128       0.00033542       0.01687253      -0.00214069
Ti       2.93618567       6.75182352       1.87096420      -0.00019285       0.01379248      -0.00041159
Ti       4.40012226       1.82085784       3.32987554       0.00007587      -0.00586473       0.00362222
Ti       1.47212286       1.82077492       3.32970666      -0.00028605      -0.00540927       0.00345838
Ti       1.46937649       4.65237886       3.26215108      -0.00003443      -0.00890102       0.00032076
Ti       4.40275160       4.65240632       3.26227004       0.00004951      -0.00912366       0.00024417
Ti       5.87197537       6.73235601       4.70819944       0.00018779       0.00739822       0.00437892
Ti       2.93612572       6.73233113       4.70450921      -0.00039043       0.00818011       0.00791250
Ti       2.93606129       3.10505223       5.32910593      -0.00029874       0.00025155       0.00850642
Ti       0.00016321       3.10534162       5.33059745       0.00019725      -0.00124926      -0.00483500
Ti       4.40309844       5.18349712       6.54137013       0.00244776      -0.00647552       0.01187362
Ti       1.46898085       5.18356360       6.54139247      -0.00239175      -0.00668787       0.01153655
Ti       4.40326841       1.11035537       6.89893622       0.00130734      -0.00757042       0.00501170
Ti       1.46878908       1.11030581       6.89910971      -0.00118110      -0.00747971       0.00432244
Ti       2.93597036       3.26335310       8.15005858      -0.00005122       0.00577104      -0.00215640
Ti       0.00005011       3.26269044       8.14917684      -0.00013997       0.00200682       0.00745211
Ti       2.93607810       6.23471559       8.76227286      -0.00004094      -0.00692073      -0.00339267
Ti       5.87190850       6.23357846       8.76075793       0.00006102      -0.00266122      -0.00168288
Ti       4.40132768       1.49868142       9.91960341       0.00261735      -0.00234156      -0.00191361
Ti       1.47061889       1.49859434       9.91954138      -0.00287763      -0.00236216      -0.00192005
Ti       4.40113559       4.30974772      10.42875907       0.00173626       0.00493777      -0.00561368
Ti       1.47083470       4.30969389      10.42849942      -0.00191160       0.00505698      -0.00565029
Ti       2.93580884       6.48420523      11.59855553       0.00006572       0.00166143      -0.00225955
Ti       0.00003516       6.47950056      11.59686352       0.00007171      -0.00118285      -0.00022873
Ti       2.93592586       2.50543996      12.21921177       0.00003191       0.00443198      -0.01068102
Ti       5.87178887       2.50492210      12.19369299      -0.00001462       0.01003791       0.00328271
Ti       1.47200988       4.67519304      13.38539894      -0.00301100       0.00156428      -0.00445641
Ti       4.39970316       4.67498143      13.38607589       0.00324606       0.00098855      -0.00401296
Ti       4.39592229       0.60848829      13.87618516       0.00047735       0.00482317       0.00027186
Ti       1.47581171       0.60865954      13.87610625      -0.00022301       0.00511052       0.00068344
Ti       5.87119070       2.74010144      15.02509552      -0.00072506       0.01155066      -0.00617477
Ti       2.93670553       2.74841455      15.05532861       0.00020519       0.00766316      -0.00696181
Ti       0.00158836       5.77767149      15.62288735      -0.00009108      -0.00357498       0.00691454
Ti       2.93412302       5.79100139      15.64065449       0.00024769       0.00218416      -0.00104720
Ti       4.43984468       3.85241603      17.20431473       0.00425132       0.00611973      -0.00859444
Ti       1.43036893       3.84849762      17.20727585      -0.00420768       0.00485997      -0.00864072
Ti       4.41867755       1.02759044      16.97536619       0.00039175      -0.00569761      -0.00363380
Ti       1.45366037       1.02769485      16.97740296      -0.00005126      -0.00577826      -0.00359756
Ti       0.00361579       5.89214689      18.39323039      -0.00071161      -0.01740165      -0.00875071
Ti       2.93243243       5.89666150      18.42585132      -0.00058214      -0.00214742       0.00079992
Ti       2.94602784       2.49899108      19.05892581       0.00327124       0.00062206      -0.00000230
V        5.86022310       2.48477516      19.00868502      -0.00253615       0.00880907      -0.00436752
Ti       4.44597643       0.49645770      20.22510670       0.00017417       0.00579028      -0.00157439
Ti       1.42666991       0.50275319      20.22368798      -0.00024324       0.00579389      -0.00126152
Ti       1.45655222       4.50772017      20.50067528       0.00354471       0.00203132       0.00100393
Ti       4.41548094       4.50963430      20.50069414      -0.00325124       0.00196351       0.00085419
Ti       2.93744271       2.41422254      21.83965134       0.00008581      -0.00153200      -0.00966481
Ti       5.87094606       2.39254187      21.77691441      -0.00005303      -0.00385560       0.00656077
Ti       2.93487453       6.28666291      22.38247538      -0.00007592       0.00710104      -0.00612964
Ti       0.00220116       6.30494967      22.40463930      -0.00009472       0.00159731       0.00895170
Ti       4.40953984       4.17443573      23.55265341       0.00032122       0.00032638       0.00304426
Ti       1.46308136       4.17414361      23.55230586      -0.00027272      -0.00008435       0.00346580
Ti       4.41399451       1.35208553      24.05909091      -0.00154281      -0.00400842       0.00379416
Ti       1.45850398       1.35231391      24.05931376       0.00158116      -0.00367623       0.00392411
Ti       2.93611304       6.09450714      25.21320290       0.00002404      -0.00195669       0.01420092
Ti       0.00008747       6.09075783      25.23491211       0.00021134      -0.00237766       0.00160280
Ti       0.00001809       3.16195012      25.83456156       0.00018612       0.00028112       0.00465269
Ti       2.93615218       3.16169049      25.81747200       0.00019520      -0.00350148       0.00511466
Ti       1.46903986       1.01170698      27.03824045       0.00148556      -0.00393294      -0.00389372
Ti       4.40317658       1.01147842      27.03826599      -0.00153035      -0.00410288      -0.00460566
