64
Lattice="5.872 0.0 0.0 0.0 6.890708 0.0 0.0 0.0 27.394398" Properties=species:S:1:pos:R:3 job_name=T1g-Zr-Zr-49-d-6.96 GB_type=T1g element=Zr system=Zr-49-d-6.96 distance=6.96 energy=-495.85332166 pbc="T T T"
Ti       4.40405608       4.98964037       0.15559070
Ti       1.46798497       4.98909185       0.16698180
Ti       5.86996127       2.86121983       1.30724800
Ti       2.93801806       2.86121775       1.30729781
Ti       5.87073516       6.72529689       1.91291095
Ti       2.93726036       6.72526493       1.91290018
Ti       4.40400598       1.77456438       3.44912628
Ti       1.46796915       1.77350307       3.44835974
Ti       1.46798416       4.60141287       3.21464361
Ti       4.40404444       4.60099478       3.21098286
Ti       0.00064627       6.63575108       4.71775105
Ti       2.93529031       6.63580543       4.71767407
Ti       2.93570703       3.21868335       5.33168367
Ti       0.00028502       3.21868631       5.33174482
Ti       4.40398793       5.23655850       6.62025596
Ti       1.46798587       5.23661753       6.62041802
Ti       4.40396540       1.17966447       6.81850992
Ti       1.46797250       1.17973510       6.81825578
Ti       2.93616657       3.30580215       8.13541715
Ti       5.87183119       3.30588035       8.13547354
Ti       2.93647939       6.35985883       8.73333946
Ti       5.87148751       6.35977643       8.73336151
Ti       4.40398134       1.59771767       9.88581987
Ti       1.46796108       1.59570461       9.88634645
Ti       4.40402309       4.41972747      10.36435322
Ti       1.46803638       4.42005639      10.36063055
Ti       2.93712458       6.58986847      11.54599734
Ti       5.87075571       6.58986835      11.54610074
Ti       2.93825752       2.61786546      12.13991146
Ti       5.86966169       2.61790745      12.13994499
Ti       1.46793353       4.78983094      13.29692497
Ti       4.40396580       4.79295852      13.30642110
Ti       4.40392116       0.72373890      13.80680271
Ti       1.46790487       0.72531972      13.80188542
Ti       0.00568523       2.89430813      14.96743875
Ti       2.93027644       2.89425969      14.96750440
Ti       0.00293396       5.83940825      15.55481158
Ti       2.93310996       5.83938482      15.55496429
Ti       4.40396602       3.94235714      17.17076202
Ti       1.46795954       3.93852146      17.20919916
Ti       4.40421325       1.12057160      16.78048661
Ti       1.46797670       1.12163622      16.75953546
Ti       0.00427795       6.06928680      18.34928200
Ti       2.93162710       6.06910788      18.34916067
Ti       2.88357289       2.28072962      18.96765714
Ti       0.05264689       2.28052767      18.96751579
Ti       4.40426556       0.43227815      20.40574355
Ti       1.46774159       0.32803459      20.41406625
Ti       1.46856798       4.39503914      20.43817159
Zr       4.40420308       4.41690479      20.44814051
Ti       2.88659914       2.29863684      21.88551603
Ti       0.04971736       2.29846769      21.88570014
Ti       2.94005334       6.18016085      22.51984942
Ti       5.86795074       6.18056459      22.51983105
Ti       4.40397768       4.04908747      23.66570194
Ti       1.46788112       4.04644409      23.61190493
Ti       4.40412329       1.24876854      24.11688443
Ti       1.46804433       1.25084163      24.13281491
Ti       2.93226230       5.98424633      25.30635618
Ti       0.00376495       5.98430403      25.30655506
Ti       0.00826217       3.06563582      25.89469576
Ti       2.92766171       3.06563677      25.89463009
Ti       1.46802233       0.91318212      27.07143785
Ti       4.40394991       0.91192646      27.06688197
