64
Lattice="5.872 0.0 0.0 0.0 6.890708 0.0 0.0 0.0 27.394398" Properties=species:S:1:pos:R:3:forces:R:3 job_name=T1g-Zn-Zn-38-d-3.19 GB_type=T1g element=Zn system=Zn-38-d-3.19 distance=3.19 energy=-488.97009491 stress_kbar_3x3="_JSON [[-9.4393446, 0.00066567, -0.00039533], [0.00066565, -12.26597206, 0.20546311], [-0.00039528, 0.20546311, -20.56763402]]" pbc="T T T"
Ti       4.40399153       5.16262391       0.08401682       0.00011099      -0.00017446      -0.01314244
Ti       1.46799396       5.16010202       0.08776174       0.00004368      -0.00122831      -0.01502984
Ti       5.86851571       3.07242827       1.27330081      -0.00129508      -0.00211786      -0.00280953
Ti       2.93949227       3.07246090       1.27319280       0.00121739      -0.00214351      -0.00250088
Ti       0.00021457       6.75566300       1.89081157       0.00301261       0.00186082       0.00766256
Ti       2.93576747       6.75566186       1.89079633      -0.00298879       0.00181226       0.00776064
Ti       4.40398776       1.83069191       3.29272187       0.00017050      -0.00215345       0.00998533
Ti       1.46798980       1.83152379       3.29273408      -0.00009314      -0.00147543       0.00902861
Ti       1.46798036       4.66812289       3.31967855       0.00002954       0.00022651       0.01026019
Ti       4.40399559       4.66567749       3.31941751       0.00001089      -0.00011434       0.00973860
Ti       0.00042357       6.76101912       4.72511924       0.00264991       0.00120245       0.00277572
Ti       2.93557219       6.76098854       4.72516516      -0.00252970       0.00123430       0.00276849
Ti       2.93830747       3.01991975       5.34030123      -0.00011645      -0.00098242       0.00086399
Ti       5.86968280       3.01987532       5.34024744       0.00012655      -0.00092124       0.00089313
Ti       4.40398204       5.11912118       6.51154778      -0.00000647       0.00020156      -0.00069044
Ti       1.46799274       5.11547172       6.50861535      -0.00004231       0.00134867       0.00147369
Ti       4.40398972       1.04197926       6.94566033      -0.00001713       0.00312030      -0.01165700
Ti       1.46800168       1.04307491       6.94950316      -0.00007187       0.00335002      -0.01230089
Ti       2.93478707       3.20048229       8.16245925       0.00154491       0.01096682      -0.00368976
Ti       0.00121737       3.20047025       8.16246518      -0.00161897       0.01103672      -0.00391259
Ti       2.93562568       6.13308482       8.76095969      -0.00247719       0.00509885       0.00519985
Ti       0.00036670       6.13312250       8.76097438       0.00275953       0.00474936       0.00525890
Ti       4.40403192       1.39873117       9.91700611       0.00002375       0.00991497       0.00357410
Ti       1.46799315       1.39662139       9.92521031      -0.00007416       0.00753123       0.00589469
Ti       4.40402358       4.22085199      10.43682296       0.00002556       0.00944472       0.00145596
Ti       1.46801817       4.21668965      10.44311961      -0.00004169       0.01193262      -0.00120895
Ti       2.94568222       6.38083064      11.59556075      -0.00177716       0.00913473      -0.00498711
Ti       5.86237398       6.38080151      11.59560659       0.00167206       0.00923079      -0.00499631
Ti       2.93630490       2.42867514      12.19936098      -0.00395488       0.00637672       0.00345110
Ti      -0.00028239       2.42870290      12.19928761       0.00391337       0.00622635       0.00354667
Ti       1.46803241       4.56411000      13.42006430      -0.00003928      -0.00046175      -0.00477508
Ti       4.40404799       4.59561940      13.36761563      -0.00016786       0.00367199      -0.00104577
Ti       4.40403779       0.55485037      13.88149403      -0.00000553       0.00389746      -0.00316906
Ti       1.46802971       0.49714298      13.82186638      -0.00002612       0.01157660      -0.00110045
Ti       5.86711736       2.60681973      15.03043756       0.00004766       0.01464788      -0.00564819
Ti       2.94090603       2.60688839      15.03046081      -0.00003564       0.01438597      -0.00575814
Ti       5.84750496       5.76263447      15.60294586       0.00300961      -0.01146127      -0.00427888
Ti       2.96048001       5.76260479      15.60300968      -0.00266649      -0.01121329      -0.00469624
Zn       4.40395990       3.85718052      16.97152288       0.00055947       0.01347494       0.00746778
Ti       1.46811921       3.74433646      16.98813766      -0.00043614      -0.01581320       0.00789384
Ti       4.40404337       1.01883277      17.02769737      -0.00009651      -0.00245251      -0.00575840
Ti       1.46801105       0.91282485      17.01268894       0.00008922       0.00355530       0.00331564
Ti       5.84063121       5.75288215      18.40176528      -0.00348639      -0.00728461       0.00482215
Ti       2.96732729       5.75278584      18.40176316       0.00362275      -0.00720355       0.00500894
Ti       2.95709064       2.68125536      18.97584010       0.00346448      -0.01002601       0.00287419
Ti       5.85091336       2.68115012      18.97601496      -0.00347331      -0.00953259       0.00200767
Ti       4.40407569       0.59806515      20.10529581      -0.00025318      -0.00811772       0.00525800
Ti       1.46798019       0.55227814      20.15879962       0.00014118      -0.01117383       0.00724224
Ti       1.46806628       4.61968825      20.59855395      -0.00010552      -0.00732607       0.00671033
Ti       4.40399991       4.65481858      20.66412786      -0.00005874      -0.00734440      -0.00111178
Ti       2.93439545       2.47524783      21.80620702       0.00350623      -0.01174225       0.00128527
Ti       0.00165226       2.47516453      21.80616022      -0.00341861      -0.01157186       0.00162339
Ti       2.94292904       6.45544003      22.40828081       0.00005506      -0.00690119       0.00533051
Ti       5.86509934       6.45549505      22.40822342      -0.00024034      -0.00707886       0.00554214
Ti       4.40396362       4.28871049      23.57650210       0.00020820      -0.00342545       0.00546586
Ti       1.46807769       4.28328694      23.56632580      -0.00016830      -0.00314271       0.00490756
Ti       4.40404142       1.46553920      24.09258213      -0.00003441      -0.00556477      -0.00604141
Ti       1.46797821       1.46258232      24.08727209      -0.00007895      -0.00049717      -0.00486288
Ti       2.93366838       6.19899715      25.24632657       0.00140941       0.00308713      -0.01079311
Ti       0.00234345       6.19906470      25.24636889      -0.00136814       0.00261045      -0.01103971
Ti       0.00199174       3.24960574      25.84629124      -0.00083205      -0.00803497      -0.00916793
Ti       2.93405645       3.24969972      25.84635833       0.00084738      -0.00840386      -0.00926215
Ti       1.46802046       1.09303897      27.07684558      -0.00008548       0.00054860      -0.00270469
Ti       4.40403049       1.09173837      27.08099404      -0.00008991      -0.00037217      -0.00020814
