64
Lattice="5.872 0.0 0.0 0.0 6.890708 0.0 0.0 0.0 27.394398" Properties=species:S:1:pos:R:3:forces:R:3 job_name=T1g-Zn-Zn-49-d-6.96 GB_type=T1g element=Zn system=Zn-49-d-6.96 distance=6.96 energy=-488.72745268 stress_kbar_3x3="_JSON [[-10.44714433, -0.00084267, 0.00092307], [-0.00084266, -10.1548418, 0.34437277], [0.00092306, 0.34437277, -19.83191899]]" pbc="T T T"
Ti       4.40405660       5.20434130      27.36542176      -0.00002314       0.00802024      -0.00975834
Ti       1.46798791       5.19937784      27.35238174      -0.00003799       0.00274642      -0.00962720
Ti       0.00426220       3.18757482       1.26831656      -0.00022983      -0.00279107      -0.00682089
Ti       2.93182770       3.18759116       1.26827256      -0.00004340      -0.00282883      -0.00660002
Ti       0.00349523       6.62446876       1.88723813      -0.00252163      -0.00734325       0.00117152
Ti       2.93242387       6.62446185       1.88718749       0.00253815      -0.00739517       0.00112163
Ti       4.40396621       1.76326779       3.17955779       0.00020328      -0.00508958      -0.00031411
Ti       1.46800708       1.76448198       3.18199294      -0.00011088      -0.00659242      -0.00030993
Ti       1.46792818       4.59335876       3.40031505       0.00011324      -0.00486911       0.00935469
Ti       4.40395482       4.59302742       3.39784285      -0.00001775      -0.00500865       0.00987657
Ti       5.87046127       6.72344477       4.71012520      -0.00122929      -0.00915693       0.00827592
Ti       2.93749985       6.72345104       4.71008203       0.00110215      -0.00931819       0.00833703
Ti       2.93607240       2.87565892       5.32283438       0.00037708      -0.00143060       0.00893530
Ti       5.87186133       2.87570158       5.32283597      -0.00030176      -0.00189529       0.00893255
Ti       4.40398609       5.00594334       6.48379458      -0.00005905      -0.00242131       0.00674241
Ti       1.46798478       5.00572562       6.48450703       0.00007924      -0.00249200       0.00710192
Ti       4.40391502       0.93134883       6.96045478       0.00024955      -0.00573102       0.00586337
Ti       1.46795856       0.93299664       6.95942307      -0.00009082      -0.00462110       0.00726650
Ti       2.93690378       3.09159348       8.14612182      -0.00063767       0.00051710       0.00073762
Ti       5.87105999       3.09159841       8.14615175       0.00066545       0.00032287       0.00044586
Ti       2.93672344       6.02238588       8.74934030      -0.00045575      -0.00719444      -0.00547213
Ti       5.87126014       6.02236403       8.74927655       0.00048386      -0.00698974      -0.00535099
Ti       4.40402061       1.29092519       9.93257605       0.00005995      -0.00379956      -0.00484316
Ti       1.46804021       1.29164002       9.93247812       0.00001420      -0.00428005      -0.00281363
Ti       4.40402225       4.10684328      10.40952011      -0.00003069      -0.00810839      -0.00372305
Ti       1.46801319       4.10661057      10.40850836       0.00009614      -0.00611582      -0.00036478
Ti       2.92902102       6.23216705      11.57287026       0.00013303      -0.00941264      -0.00324265
Ti       0.00710779       6.23217131      11.57281306      -0.00012602      -0.00935539      -0.00314220
Ti       2.94269700       2.38642048      12.18148076      -0.00083394       0.00387029       0.00345678
Ti       5.86542513       2.38639831      12.18148348       0.00075890       0.00401295       0.00321216
Ti       1.46803502       4.50869539      13.50064517       0.00002317      -0.00414590       0.01381074
Ti       4.40409487       4.50727073      13.51094359      -0.00029695      -0.00391401       0.00921984
Ti       4.40412803       0.44101340      13.70339917      -0.00040613      -0.00383046       0.00544067
Ti       1.46805236       0.45229420      13.70299589       0.00001135      -0.00653686       0.00664966
Ti       5.84893349       2.45664693      15.00306119       0.00462258      -0.00411509      -0.00065209
Ti       2.95920349       2.45667689      15.00309848      -0.00457084      -0.00423825      -0.00079654
Ti       0.03457581       5.93325181      15.63042470      -0.00219825       0.01629030      -0.00051937
Ti       2.90156396       5.93320223      15.63043562       0.00224880       0.01660708      -0.00099328
Ti       4.40412292       3.90311399      16.86129879      -0.00008066       0.00509764      -0.00712477
Ti       1.46805931       3.88953862      16.90891692      -0.00004863       0.01442711      -0.01153025
Ti       4.40400076       1.05042855      17.18916800      -0.00001160       0.00188693      -0.01088209
Ti       1.46799645       1.06350387      17.11152091       0.00011564      -0.00168908       0.00189819
Ti       0.01427901       5.85158466      18.45683699      -0.00057346       0.00721702      -0.00414018
Ti       2.92170735       5.85159899      18.45676316       0.00071958       0.00717372      -0.00371268
Ti       2.98865855       2.83386028      19.03960190      -0.00869923       0.00873913      -0.00342903
Ti       5.81940717       2.83383753      19.03966726       0.00878356       0.00887859      -0.00372139
Ti       4.40399863       0.64912403      20.18326812      -0.00006754      -0.00538896      -0.00611095
Ti       1.46802497       0.75023452      20.15005767      -0.00007469       0.00538978       0.00876399
Ti       1.46801194       4.80567101      20.71214888       0.00008473      -0.00554490      -0.00769118
Zn       4.40400363       4.74358475      20.66776215      -0.00004931       0.00362092      -0.00790631
Ti       2.95193861       2.61776723      21.83131697      -0.00265433       0.00120247      -0.00146912
Ti       5.85607205       2.61778326      21.83135194       0.00269338       0.00119737      -0.00146993
Ti       2.90885948       6.53093922      22.39697465       0.01230480       0.00548799       0.01145915
Ti       0.02711047       6.53094520      22.39694110      -0.01211824       0.00544449       0.01148047
Ti       4.40397288       4.37690116      23.60178453      -0.00004440       0.01673427       0.00345876
Ti       1.46798145       4.36974805      23.65816085       0.00015649       0.00905982       0.00775395
Ti       4.40402464       1.57234671      24.01364990      -0.00020309      -0.00201337       0.01016277
Ti       1.46800246       1.53814325      24.05669658       0.00015295       0.00361867       0.00403617
Ti       2.95156885       6.32285227      25.23400850      -0.00610748       0.01184931      -0.01020629
Ti       5.85647095       6.32285013      25.23396052       0.00602422       0.01182138      -0.01003097
Ti       5.85883318       3.25931776      25.83988566       0.00278217      -0.00656751      -0.00562061
Ti       2.94909523       3.25932217      25.83989196      -0.00272149      -0.00667509      -0.00576549
Ti       1.46793551       1.14166044      27.17919778       0.00010688       0.00460502      -0.01347139
Ti       4.40397880       1.14279977      27.15202124      -0.00002857       0.00306114      -0.00533919
