64
Lattice="5.872 0.0 0.0 0.0 6.890708 0.0 0.0 0.0 27.394398" Properties=species:S:1:pos:R:3:forces:R:3 job_name=T1g-Al-Al-44-d-5.32 GB_type=T1g element=Al system=Al-44-d-5.32 distance=5.32 energy=-491.97454796 stress_kbar_3x3="_JSON [[-11.56633, -8.632e-05, 0.00028508], [-8.636e-05, -12.22429718, -0.36961737], [0.00028509, -0.36961735, -16.41466887]]" pbc="T T T"
Ti       4.40789135       5.21034648      27.39175997      -0.00201635      -0.00467396      -0.00093101
Ti       1.46409789       5.21029778      27.39176897       0.00202189      -0.00464309      -0.00093277
Ti       5.87191838       3.18331996       1.27694490      -0.00001589      -0.00179720      -0.00600948
Ti       2.93609300       3.18941015       1.28808426      -0.00011255      -0.00438373      -0.00870790
Ti       0.00007812       6.63729235       1.89966669      -0.00005061      -0.00195045      -0.00185942
Ti       2.93590661       6.63496076       1.90165849       0.00011919       0.00101207      -0.00045528
Ti       4.40417044       1.76869235       3.18924179      -0.00189561      -0.00164193       0.00424212
Ti       1.46775722       1.76875806       3.18926424       0.00207479      -0.00192732       0.00415878
Ti       1.46781257       4.59869059       3.40171013       0.00269266      -0.00058823      -0.00126751
Ti       4.40418064       4.59867186       3.40172080      -0.00271609      -0.00060578      -0.00122472
Ti       5.87196620       6.72364222       4.71354427       0.00005949       0.00093822       0.00425515
Ti       2.93594086       6.72458203       4.71676680       0.00006377      -0.00135624      -0.00356390
Ti       2.93598679       2.87874893       5.32555720       0.00008363      -0.00070337      -0.00734322
Ti       5.87194188       2.87706541       5.32220503      -0.00003765       0.00339210       0.00212949
Ti       4.40414551       5.00641774       6.48187081       0.00053614      -0.00063918      -0.00381491
Ti       1.46776432       5.00643948       6.48183734      -0.00059929      -0.00075314      -0.00353658
Ti       4.40376258       0.93337281       6.95851932      -0.00048852       0.00142654      -0.00303767
Ti       1.46814711       0.93336980       6.95851847       0.00036410       0.00155765      -0.00307695
Ti       2.93595812       3.09135097       8.14274348      -0.00002435       0.00285240       0.00326049
Ti       5.87194115       3.09396268       8.13771005       0.00014255       0.00102393      -0.00541278
Ti       2.93595392       6.02543533       8.74137821      -0.00002489       0.00362447       0.01038047
Ti       5.87194171       6.02654171       8.73854964       0.00014098      -0.00199517      -0.00838732
Ti       4.40840355       1.29516103       9.92497950      -0.00618327       0.00212832       0.00199403
Ti       1.46359982       1.29517494       9.92497506       0.00618646       0.00199533       0.00199912
Ti       4.40569598       4.11008126      10.39769621      -0.00985265       0.00267449       0.00269115
Ti       1.46627256       4.11007031      10.39769644       0.00986861       0.00278264       0.00268251
Ti       2.93603511       6.24003495      11.56007202       0.00000321      -0.00427679      -0.00738296
Ti       0.00006057       6.24457247      11.55160798      -0.00000404       0.00439383       0.00651193
Ti       2.93603953       2.39359340      12.15168138      -0.00004679       0.00485855      -0.01234319
Ti       0.00003406       2.39483171      12.18308701      -0.00010830      -0.00341602      -0.00002843
Ti       1.45980058       4.53020565      13.48288966       0.00262972      -0.00047611       0.00159729
Ti       4.41239924       4.53020584      13.48290390      -0.00274250      -0.00062523       0.00158036
Ti       4.42554666       0.45522281      13.69171115       0.00000891       0.00084721      -0.00075092
Ti       1.44658718       0.45526678      13.69170004      -0.00008262       0.00049404      -0.00060614
Ti       0.00005898       2.48382992      14.99833546      -0.00003854      -0.00383266      -0.00217566
Ti       2.93611199       2.49374637      14.93481839      -0.00002750       0.00248087       0.01960679
Ti       0.00009436       5.92225330      15.61631017       0.00008406       0.00096886       0.01259448
Ti       2.93605232       5.91618912      15.59764722      -0.00010313       0.00505877      -0.00719543
Ti       4.35451528       3.88081501      16.89447233      -0.00007047       0.00408436      -0.00165659
Ti       1.51765804       3.88079879      16.89443231      -0.00026611       0.00413353      -0.00169855
Ti       4.38291997       1.10488146      17.11774928      -0.00153319      -0.00112320      -0.00235409
Ti       1.48917993       1.10487439      17.11775550       0.00151531      -0.00114025      -0.00226906
Ti       0.00005269       5.87003601      18.41422522       0.00001247      -0.00083635      -0.00503402
Ti       2.93601081       5.73404584      18.41440010       0.00005828       0.00094683       0.00558070
Al       2.93603467       2.83286638      19.02999352       0.00004936       0.00146422       0.00008230
Ti       0.00005588       2.84048477      19.07405411       0.00000502       0.00604639       0.00180970
Ti       4.38065138       0.68457807      20.17676948       0.00316190       0.00222090       0.00824922
Ti       1.49138674       0.68458066      20.17675149      -0.00317731       0.00213513       0.00822965
Ti       1.45863548       4.72799916      20.65963625      -0.00210050      -0.00816215      -0.00251311
Ti       4.41342409       4.72801150      20.65961104       0.00207152      -0.00827262      -0.00249366
Ti       2.93597489       2.55406991      21.82355784       0.00023334       0.00521241      -0.00661730
Ti       0.00000325       2.57314241      21.91253179      -0.00003637       0.00285856       0.00276345
Ti       2.93599203       6.56279860      22.40368617       0.00008542       0.00441245       0.00066121
Ti       0.00001359       6.52417972      22.42439260      -0.00003204      -0.00050679      -0.00012800
Ti       4.38533688       4.37607053      23.62248082       0.00724891      -0.00469962      -0.00285811
Ti       1.48664634       4.37606470      23.62248415      -0.00720460      -0.00474770      -0.00283671
Ti       4.38546562       1.54392914      24.10085453       0.01134627      -0.00287153      -0.00205113
Ti       1.48649629       1.54391878      24.10085237      -0.01119023      -0.00273495      -0.00195318
Ti       2.93597498       6.31170931      25.25390978       0.00002274      -0.00344444       0.00867104
Ti       0.00003268       6.31443702      25.25705506      -0.00007142       0.00025132       0.00320321
Ti       5.87196442       3.27290407      25.84850487       0.00004978      -0.00086940       0.00438948
Ti       2.93602625       3.27756390      25.86867857      -0.00007363       0.00504639       0.00791364
Ti       1.46787587       1.14964859      27.17254748      -0.00000387      -0.00187895      -0.00339119
Ti       4.40416902       1.14963136      27.17254216      -0.00000959      -0.00174923      -0.00333893
