64
Lattice="5.872 0.0 0.0 0.0 6.890708 0.0 0.0 0.0 27.394398" Properties=species:S:1:pos:R:3:forces:R:3 job_name=T1g-V-V-41-d-3.41 GB_type=T1g element=V system=V-41-d-3.41 distance=3.41 energy=-495.72209853 stress_kbar_3x3="_JSON [[-12.43180622, -0.00241679, -0.0014894], [-0.00241678, -14.16456353, 2.24661413], [-0.00148939, 2.24661412, -19.88797227]]" pbc="T T T"
Ti       4.40398078       5.20950881      27.37998891      -0.00010263      -0.00517109       0.00225982
Ti       1.46799269       5.21053679      27.38023576       0.00012439      -0.00635820       0.00151130
Ti       0.00353223       3.18327227       1.28017624      -0.00054640       0.00614760       0.00614053
Ti       2.93244662       3.18325295       1.27999556       0.00050810       0.00627732       0.00631896
Ti       5.86946459       6.62495201       1.89997735       0.00023424       0.00216800       0.00020842
Ti       2.93849957       6.62495888       1.89988553      -0.00027561       0.00210812       0.00019212
Ti       4.40396580       1.76429354       3.19359484       0.00001412      -0.00614782      -0.00705778
Ti       1.46800143       1.76197633       3.19240743      -0.00010739      -0.00678526      -0.00639454
Ti       1.46798678       4.58574463       3.40756255      -0.00004629      -0.00683935      -0.00425563
Ti       4.40401331       4.58625556       3.40704352      -0.00005621      -0.00683735      -0.00370998
Ti       5.87149279       6.71379074       4.72017367       0.00032122       0.00335234      -0.00550455
Ti       2.93649819       6.71382850       4.72020160      -0.00034652       0.00317460      -0.00538056
Ti       2.93429088       2.86579436       5.33229982       0.00028868      -0.00461897      -0.00272111
Ti       0.00165171       2.86583718       5.33230726      -0.00012531      -0.00483715      -0.00283558
Ti       4.40401437       4.99297457       6.49268111      -0.00009796      -0.00343542       0.00120991
Ti       1.46797235       4.99453247       6.49209873       0.00008580      -0.00505444       0.00121352
Ti       4.40396025       0.91551691       6.96590317      -0.00001809      -0.00292194      -0.00123951
Ti       1.46800285       0.91517701       6.96926527       0.00005938      -0.00232499      -0.00148065
Ti       2.93661762       3.06909038       8.15528952      -0.00022097      -0.00302807      -0.00162527
Ti       5.87138259       3.06912984       8.15529888       0.00026736      -0.00317635      -0.00164595
Ti       2.93471949       6.00949013       8.75838440       0.00035323      -0.00595953      -0.00068015
Ti       0.00131549       6.00947511       8.75833863      -0.00046073      -0.00581878      -0.00046575
Ti       4.40400839       1.26730287       9.95116470       0.00009807      -0.00329376       0.00491920
Ti       1.46806494       1.26831848       9.95824464      -0.00001621      -0.00199087       0.00601327
Ti       4.40405277       4.07644394      10.40635198      -0.00014151      -0.00028944       0.00215401
Ti       1.46796458       4.07837059      10.41002606       0.00018856      -0.00061172       0.00304002
Ti       2.93121265       6.18935607      11.56976467       0.00030660      -0.00074660      -0.00243681
Ti       0.00487895       6.18931147      11.56973676      -0.00042739      -0.00059807      -0.00238262
Ti       2.94646870       2.39371654      12.18463868      -0.00066417      -0.00493688       0.00131692
Ti       5.86160457       2.39375665      12.18460054       0.00074537      -0.00481831       0.00141475
Ti       1.46810652       4.49044814      13.56846795      -0.00000984      -0.00217634      -0.00336831
Ti       4.40413022       4.48748146      13.56104943      -0.00004750      -0.00478077      -0.00539333
Ti       4.40407960       0.43482446      13.65888277      -0.00012496       0.01037576      -0.00384975
Ti       1.46801368       0.45042265      13.63434455       0.00012276       0.00064183       0.00016663
Ti       5.86804143       2.40162150      15.03949464       0.00510756      -0.01583976       0.00204254
Ti       2.94003126       2.40151518      15.03938090      -0.00507100      -0.01590475       0.00202364
Ti       0.06113241       6.06034336      15.63608446      -0.00009674       0.01766273       0.00040456
Ti       2.87504599       6.06037984      15.63602697       0.00009659       0.01774987       0.00028236
Ti       4.40396237       3.99808088      16.83551510       0.00009407       0.00358574      -0.00722792
Ti       1.46798428       3.90717129      16.82145210      -0.00002820      -0.00404290      -0.00515628
Ti       4.40399131       1.14318751      17.14111786       0.00011462       0.00715979       0.00292074
V        1.46841139       1.11086959      17.13856518      -0.00006906       0.00178149       0.00428304
Ti       0.03735182       5.89777688      18.40787978       0.00539908       0.00737895       0.00348548
Ti       2.89871601       5.89772107      18.40795944      -0.00537717       0.00730243       0.00354503
Ti       2.94208218       2.81292215      18.96362421      -0.00338247      -0.00404128       0.00686989
Ti       5.86594052       2.81293631      18.96355147       0.00328688      -0.00406341       0.00672427
Ti       4.40395798       0.69051992      20.18764953      -0.00006194       0.00925950       0.00827449
Ti       1.46791976       0.69028244      20.15509711       0.00008139       0.00453310       0.00057255
Ti       1.46799510       4.75027066      20.63739666      -0.00004292       0.00351441       0.00412343
Ti       4.40405422       4.74772477      20.62301618       0.00001349       0.00130253       0.00384320
Ti       2.93478058       2.59475432      21.82099677      -0.00260808       0.00174718      -0.00131326
Ti       0.00123902       2.59466478      21.82087733       0.00255758       0.00204423      -0.00106472
Ti       2.93152155       6.53787721      22.42225213      -0.00154359       0.00600000       0.00191161
Ti       0.00437976       6.53797956      22.42221989       0.00166270       0.00569936       0.00214076
Ti       4.40397879       4.37658183      23.60633787       0.00003780       0.00221599       0.00054738
Ti       1.46797898       4.37615011      23.60967933      -0.00009362       0.00614733      -0.00606051
Ti       4.40397463       1.56209540      24.07420198       0.00011397       0.00113585      -0.00043402
Ti       1.46795887       1.56040823      24.08244448      -0.00004580       0.00218644      -0.00392255
Ti       2.93802007       6.32135786      25.24292103       0.00017031       0.00246978      -0.00531115
Ti       5.86996386       6.32139322      25.24295128      -0.00018997       0.00244499      -0.00554330
Ti       0.00038698       3.27385875      25.85127869       0.00056623       0.00263899      -0.00232379
Ti       2.93553691       3.27387635      25.85133038      -0.00059924       0.00284818      -0.00230971
Ti       1.46797014       1.14633311      27.17229950       0.00001897      -0.00299056       0.00570517
Ti       4.40394980       1.14605304      27.16907650       0.00000639      -0.00261429       0.00531555
