64
Lattice="5.872 0.0 0.0 0.0 6.890708 0.0 0.0 0.0 27.394398" Properties=species:S:1:pos:R:3:forces:R:3 job_name=T1g-Zr-Zr-43-d-4.72 GB_type=T1g element=Zr system=Zr-43-d-4.72 distance=4.72 energy=-495.64173785 stress_kbar_3x3="_JSON [[-2.65357459, -0.00036928, -0.00065983], [-0.00036927, -3.0275295, -0.39226528], [-0.00065983, -0.39226524, -9.86862554]]" pbc="T T T"
Ti       4.39143677       5.20604293       0.01950441       0.00380708      -0.00293848      -0.00221063
Ti       1.48058117       5.20608318       0.01948447      -0.00382014      -0.00301658      -0.00216178
Ti       0.00004836       3.18981860       1.29860041      -0.00013409      -0.00223685      -0.00539695
Ti       2.93594478       3.18589413       1.30144926       0.00012790      -0.00301342      -0.00232598
Ti       0.00001233       6.62610274       1.90905678      -0.00007231      -0.00383289      -0.00159508
Ti       2.93602936       6.63185851       1.91963821      -0.00009206      -0.00366330      -0.00463738
Ti       4.40883055       1.76263559       3.19100301       0.00283659      -0.00298370      -0.00197569
Ti       1.46313438       1.76266189       3.19101402      -0.00260809      -0.00308114      -0.00199141
Ti       1.46768157       4.59534569       3.40938491      -0.00140621      -0.00532697      -0.00290599
Ti       4.40437212       4.59534655       3.40939031       0.00131721      -0.00509878      -0.00316991
Ti       5.87197749       6.72109672       4.71597669       0.00014940      -0.00325554      -0.00196975
Ti       2.93596814       6.72160790       4.72002222       0.00002771      -0.00503762      -0.00198567
Ti       2.93600564       2.87462981       5.31722034      -0.00011124      -0.00263486       0.00112060
Ti       5.87197056       2.87328267       5.31885962       0.00015457      -0.00310843       0.00171116
Ti       4.40336621       5.00101061       6.47243114       0.00087653      -0.00169730       0.00225771
Ti       1.46860418       5.00102809       6.47245800      -0.00079816      -0.00171130       0.00226377
Ti       4.40375100       0.93288328       6.94918226       0.00155224      -0.00324006       0.00166294
Ti       1.46823744       0.93289696       6.94916683      -0.00147397      -0.00336272       0.00165968
Ti       2.93599204       3.09065447       8.12610585       0.00003833      -0.00302622       0.00298338
Ti       5.87197894       3.08806762       8.12802366       0.00024657      -0.00016244       0.00380615
Ti       2.93600850       6.02279365       8.72316259      -0.00012714      -0.00027242       0.00265676
Ti       0.00001312       6.02247040       8.71567082      -0.00015184      -0.00129719       0.00625137
Ti       4.40183458       1.28823040       9.90239771       0.00155929       0.00037069       0.00579880
Ti       1.47012933       1.28825413       9.90237197      -0.00141245       0.00037246       0.00583066
Ti       4.39943432       4.10829406      10.37499092       0.00118523       0.00035555       0.00246103
Ti       1.47259472       4.10828068      10.37494128      -0.00138968       0.00043674       0.00258720
Ti       2.93601092       6.23627708      11.53280705      -0.00001332       0.00092438       0.00143381
Ti       5.87197528       6.23095453      11.51945127       0.00014315       0.00184939       0.00162022
Ti       2.93600412       2.39584939      12.14257472      -0.00000412       0.00295450      -0.00351387
Ti       5.87198880       2.39566209      12.12273164       0.00021553       0.00302977      -0.00097801
Ti       1.46644080       4.52293463      13.45484313       0.00025081       0.00448830       0.00016731
Ti       4.40562682       4.52293703      13.45482042      -0.00046720       0.00443333       0.00024328
Ti       4.40702364       0.45554102      13.64697137       0.00116344       0.00121671      -0.00518598
Ti       1.46496890       0.45548903      13.64696056      -0.00117512       0.00129224      -0.00525268
Ti       0.00004762       2.47414336      14.91437526       0.00001531       0.00306129       0.00099335
Ti       2.93602849       2.48065912      14.94637861       0.00000290       0.00178340      -0.00689630
Ti       0.00000884       5.96087708      15.58672231       0.00005278       0.00283859       0.00100546
Ti       2.93605545       5.94334968      15.53110525      -0.00001701      -0.00087848       0.00762798
Ti       4.44155106       3.89532477      16.83627843      -0.00716936       0.00374559       0.00164161
Ti       1.43052499       3.89531592      16.83631340       0.00705108       0.00377010       0.00142959
Ti       4.44575880       1.12559800      17.05271235      -0.00354929       0.00398363       0.00365538
Ti       1.42635919       1.12554082      17.05272081       0.00341688       0.00438235       0.00360877
Ti       0.00004716       5.85530265      18.43217219       0.00005284      -0.00203091       0.00633796
Zr       2.93601055       5.86318820      18.44970047       0.00005545       0.00345908      -0.00636771
Ti       2.93606903       2.74399988      19.00028666      -0.00020405       0.00542873       0.00003308
Ti       0.00002777       2.82140786      19.04197559       0.00000951       0.00444871      -0.00204813
Ti       4.45508742       0.70015628      20.25685546       0.00003612       0.00577011       0.00059492
Ti       1.41698615       0.70017380      20.25688439      -0.00020957       0.00578100       0.00061866
Ti       1.43083220       4.71537474      20.72107657      -0.00092885       0.00015156       0.00374877
Ti       4.44129345       4.71541914      20.72107173       0.00070276      -0.00011653       0.00380415
Ti       2.93599675       2.58921494      21.86557263       0.00002654      -0.00185075      -0.00081775
Ti       0.00004624       2.57011297      21.89696902      -0.00013905       0.00194629      -0.00304251
Ti       2.93601356       6.52003823      22.45541466       0.00005257       0.00188297       0.00346454
Ti       0.00002401       6.52573553      22.50387672      -0.00004286       0.00248713      -0.00683094
Ti       4.39870576       4.37458672      23.66222521       0.00187036      -0.00085451      -0.00103112
Ti       1.47327222       4.37458850      23.66222361      -0.00170717      -0.00078492      -0.00105632
Ti       4.40043430       1.54824385      24.12997610      -0.00113744       0.00123734      -0.00067801
Ti       1.47159718       1.54823106      24.12998137       0.00101553       0.00125550      -0.00060409
Ti       2.93604027       6.31885155      25.27512749       0.00003345      -0.00090609       0.00251691
Ti       0.00000027       6.31999454      25.30740987      -0.00005396      -0.00180138      -0.00335762
Ti       5.87195956       3.26704743      25.88663622       0.00013923       0.00098051      -0.00118229
Ti       2.93596656       3.27321176      25.89068427       0.00019317      -0.00250288      -0.00005915
Ti       1.47193387       1.14862784      27.20444516      -0.00093867      -0.00211272      -0.00317256
Ti       4.39999031       1.14861714      27.20442559       0.00097635      -0.00228057      -0.00319566
