64
Lattice="5.872 0.0 0.0 0.0 6.890708 0.0 0.0 0.0 27.394398" Properties=species:S:1:pos:R:3:forces:R:3 job_name=T1g-Cu-Cu-36-d-1.90 GB_type=T1g element=Cu system=Cu-36-d-1.90 distance=1.9 energy=-491.04515675 stress_kbar_3x3="_JSON [[-13.52629787, 0.00138595, -0.00097207], [0.00138596, -17.20106685, 3.32012932], [-0.00097207, 3.32012935, -20.99514025]]" pbc="T T T"
Ti       4.39781926       5.21676671      27.38497376      -0.00260367      -0.00449728       0.00770858
Ti       1.47417917       5.21681953      27.38497499       0.00261971      -0.00438678       0.00772582
Ti       0.00000921       3.18911842       1.27735836      -0.00003475      -0.00110183      -0.00187047
Ti       2.93589609       3.19042658       1.28113947      -0.00003543       0.00195473       0.00228798
Ti       5.87197292       6.64746594       1.89851517       0.00001430       0.00127935       0.00397526
Ti       2.93607124       6.64712572       1.90225944       0.00005627      -0.00053856       0.00056778
Ti       4.40650914       1.78024766       3.20268801       0.00092845      -0.00532840      -0.00651797
Ti       1.46541477       1.78022218       3.20271326      -0.00101898      -0.00529023      -0.00642695
Ti       1.46738234       4.60552309       3.40638647      -0.00007775       0.00599278      -0.00320751
Ti       4.40463641       4.60552251       3.40638463       0.00009338       0.00601216      -0.00322951
Ti       5.87199677       6.73330779       4.72312829       0.00005851       0.00191102       0.00008857
Ti       2.93604179       6.73715661       4.72255143      -0.00008014       0.00442375      -0.00530467
Ti       2.93601366       2.88758501       5.34428426       0.00001515      -0.00019410       0.00654733
Ti       0.00001103       2.88924204       5.34141373       0.00000295       0.00187103       0.00342211
Ti       4.40091547       5.02124470       6.50606505      -0.00281643       0.00191716       0.00374599
Ti       1.47113895       5.02124046       6.50605196       0.00284189       0.00217723       0.00368107
Ti       4.40110574       0.93445159       6.97605352      -0.00377385       0.00203412       0.00214437
Ti       1.47102565       0.93444259       6.97603487       0.00385635       0.00203550       0.00212214
Ti       2.93604560       3.09885344       8.16841116       0.00009331       0.00279154       0.00260849
Ti       0.00003114       3.09469701       8.15875371      -0.00002226       0.00284783       0.00108846
Ti       2.93604991       6.01126551       8.78343592      -0.00009810       0.00313227      -0.00220752
Ti       0.00003825       6.01215557       8.76117693       0.00004056       0.00147492       0.00453031
Ti       4.40532415       1.28801844       9.95329787       0.00043272       0.00507137       0.00317643
Ti       1.46668147       1.28801544       9.95328938      -0.00039623       0.00513074       0.00321232
Ti       4.40230814       4.06539966      10.44301431       0.00297050      -0.00179781       0.00041721
Ti       1.46974146       4.06539309      10.44302140      -0.00303274      -0.00180373       0.00038040
Ti       2.93600997       6.20890760      11.59313815       0.00010573       0.00509667       0.01093177
Ti       0.00001031       6.20969825      11.54678784      -0.00009947       0.00334949       0.00727476
Ti       2.93598846       2.35210342      12.20308866       0.00004879      -0.00203734       0.00363101
Ti       0.00001005       2.34633576      12.21899199       0.00003479      -0.00665140       0.00471980
Ti       1.45733426       4.47647313      13.55485571       0.00012515       0.01164883      -0.00012627
Ti       4.41458824       4.47648094      13.55480969      -0.00017972       0.01169328      -0.00024388
Ti       4.44897819       0.35084561      13.68520956       0.00239575      -0.00116247      -0.00493930
Ti       1.42303856       0.35083062      13.68522794      -0.00238318      -0.00105307      -0.00490854
Ti       5.87198252       2.31991073      14.99996086      -0.00000117       0.00190400       0.00850646
Ti       2.93597895       2.36660329      14.97725444      -0.00006394       0.00064857       0.00579994
Cu      -0.00000308       6.05801878      15.61931767      -0.00003264       0.00427433      -0.00362018
Ti       2.93600966       6.08527006      15.69854653       0.00005920      -0.00317829      -0.00296776
Ti       4.42637792       3.96784042      16.73248313      -0.00726049      -0.00480047      -0.00300731
Ti       1.44559182       3.96782520      16.73254288       0.00719237      -0.00480077      -0.00287626
Ti       4.37311197       1.06785836      17.17614121      -0.00569535       0.00170071      -0.00026938
Ti       1.49896392       1.06785038      17.17612473       0.00570873       0.00168138      -0.00025704
Ti       0.00002836       5.78052732      18.38017426       0.00007695      -0.00165263      -0.00002496
Ti       2.93604821       5.80221206      18.47480937       0.00004195      -0.00631852       0.00560686
Ti       2.93599985       2.84013763      18.94734453      -0.00013204      -0.00349032      -0.01043790
Ti       5.87196977       2.91067476      18.90830567       0.00002236      -0.00239822      -0.01266203
Ti       4.43216461       0.71211577      20.14521983       0.00047882      -0.00246265       0.00320290
Ti       1.43987462       0.71210422      20.14521754      -0.00045182      -0.00256926       0.00322634
Ti       1.44441087       4.74030111      20.65528984       0.00033066       0.00050050      -0.00192862
Ti       4.42763330       4.74031910      20.65530902      -0.00035879       0.00052852      -0.00187222
Ti       2.93600401       2.58367189      21.81774374      -0.00013131      -0.00288701      -0.00907964
Ti       0.00003208       2.57483592      21.80972981       0.00013782      -0.00696537      -0.00433305
Ti       2.93602005       6.55717838      22.38381860      -0.00005193      -0.00130497      -0.01417862
Ti       0.00003435       6.56819140      22.41624462       0.00006031       0.00080212      -0.00627938
Ti       4.40350259       4.39041423      23.59500483       0.00048870      -0.00324322      -0.00420859
Ti       1.46858094       4.39038445      23.59500469      -0.00041141      -0.00340261      -0.00432875
Ti       4.40265077       1.56479026      24.08374468       0.00066687      -0.00337027      -0.00314839
Ti       1.46932680       1.56478055      24.08376433      -0.00075540      -0.00343004      -0.00315495
Ti       2.93600465       6.32090866      25.22863456      -0.00001797      -0.00460385      -0.00092809
Ti       5.87197536       6.32830850      25.24513564       0.00000057       0.00116366      -0.00305901
Ti       0.00002498       3.28381005      25.84700751      -0.00004581      -0.00009344       0.00031188
Ti       2.93601879       3.28760421      25.84917808       0.00005280       0.00036762       0.00891237
Ti       1.47089402       1.15400442      27.16228603       0.00068884      -0.00032311       0.00501712
Ti       4.40111547       1.15401472      27.16223571      -0.00067844      -0.00027912       0.00503289
