64
Lattice="5.872 0.0 0.0 0.0 6.890708 0.0 0.0 0.0 27.394398" Properties=species:S:1:pos:R:3:forces:R:3 job_name=T1g-Cu-Cu-31-d-0.22 GB_type=T1g element=Cu system=Cu-31-d-0.22 distance=0.22 energy=-490.87914926 stress_kbar_3x3="_JSON [[-12.101865, 0.00075326, 0.00080396], [0.00075319, -14.73045054, -4.21315648], [0.00080398, -4.21315647, -22.59062447]]" pbc="T T T"
Ti       4.40398566       5.19729234       0.01046573       0.00005482      -0.00844084       0.00729463
Ti       1.46800172       5.19869072       0.01026799       0.00006622      -0.00985251       0.00795961
Ti       0.00340395       3.16282374       1.29051651      -0.00007825      -0.00569967      -0.00706225
Ti       2.93264469       3.16281781       1.29050484      -0.00000494      -0.00570773      -0.00698297
Ti       5.86772863       6.64615582       1.91468253      -0.00001077       0.01001933      -0.00995758
Ti       2.94030604       6.64619750       1.91470228      -0.00006737       0.00977111      -0.01011168
Ti       4.40399854       1.77407052       3.21966094       0.00018421       0.00048995       0.00776095
Ti       1.46802665       1.77285474       3.22157953      -0.00010548      -0.00052170       0.00646689
Ti       1.46799877       4.60251377       3.41133280       0.00002632       0.00358649      -0.00929634
Ti       4.40400470       4.60475303       3.40590853       0.00002279       0.00530134      -0.00775170
Ti       0.00025407       6.73004869       4.74108866      -0.00157193       0.00230818       0.00003347
Ti       2.93577894       6.73004693       4.74110670       0.00161138       0.00230582      -0.00013686
Ti       2.93394497       2.90310036       5.35291210       0.00359474       0.01457372       0.00501677
Ti       0.00210154       2.90310852       5.35294970      -0.00364060       0.01458263       0.00481268
Ti       4.40401223       5.03001458       6.50782423       0.00014540       0.00890676       0.00552953
Ti       1.46805012       5.02482290       6.52802132      -0.00014009       0.00144953       0.00258110
Ti       4.40401078       0.96289761       6.99999991       0.00008683       0.00366251       0.00096815
Ti       1.46804991       0.96223759       6.97863497      -0.00017448       0.00334567       0.00060067
Ti       2.95472266       3.12627838       8.18156038       0.00069092       0.01050725       0.00891834
Ti       5.85333219       3.12627207       8.18158236      -0.00065345       0.01059103       0.00866364
Ti       2.95100153       6.07830533       8.77961193       0.00811579       0.00257301       0.00425138
Ti       5.85703917       6.07834087       8.77963141      -0.00803285       0.00245384       0.00411570
Ti       4.40405199       1.36722565       9.99981530      -0.00031728       0.00549699      -0.00052213
Ti       1.46801753       1.32815800       9.96007903       0.00014970       0.01306315       0.00973930
Ti       4.40403348       4.18763494      10.46264289      -0.00002235       0.00523131      -0.00820346
Ti       1.46803132       4.17250443      10.38754080       0.00005264      -0.00374121      -0.00122493
Ti       2.89819618       6.33324314      11.62422161      -0.00970134       0.00613505      -0.01098725
Ti       0.03786522       6.33324089      11.62422544       0.00972028       0.00613791      -0.01094078
Ti       2.95955280       2.45752474      12.17844206      -0.00355215       0.00264754      -0.01176220
Ti       5.84850037       2.45754949      12.17845995       0.00359353       0.00258754      -0.01185622
Ti       1.46803164       4.66112779      13.33525335      -0.00000429       0.00299246      -0.01317333
Cu       4.40402676       4.56856474      13.39657589      -0.00003126      -0.00246705       0.00136790
Ti       4.40404765       0.45605964      13.79402642       0.00005009       0.01077825      -0.00276531
Ti       1.46805963       0.60971670      13.83738029      -0.00022969       0.00492284      -0.00190626
Ti       5.79654461       2.65235450      14.93469630      -0.00082642      -0.00082580       0.00331622
Ti       3.01145422       2.65237358      14.93470748       0.00090433      -0.00090115       0.00295638
Ti       0.02268480       5.81280198      15.53938333       0.00613965      -0.00033984       0.01348712
Ti       2.91334763       5.81281927      15.53938161      -0.00612724      -0.00047209       0.01359907
Ti       4.40396045       3.84603273      16.98464754       0.00004771      -0.00687067       0.01298697
Ti       1.46801361       3.82554873      16.91557031      -0.00002962       0.00082576       0.01077931
Ti       4.40399347       0.98504629      16.89712558       0.00000438       0.00337867       0.00297847
Ti       1.46799243       0.99789135      17.00484456       0.00000254       0.00268802      -0.00194238
Ti       0.01811935       5.82100053      18.38308375      -0.00282948      -0.01235720       0.00010104
Ti       2.91786093       5.82100350      18.38311630       0.00279005      -0.01243187       0.00002336
Ti       2.93145524       2.69475562      19.00158342       0.00279586       0.00208500      -0.00591973
Ti       0.00448519       2.69475886      19.00156964      -0.00252071       0.00206247      -0.00596114
Ti       4.40397560       0.59693992      20.15355379       0.00008643       0.00211200      -0.00081209
Ti       1.46798465       0.58847901      20.17222315      -0.00009430       0.00381465       0.00074732
Ti       1.46796276       4.66909757      20.63439116       0.00007481      -0.00618930      -0.00877659
Ti       4.40399020       4.67963240      20.60979535      -0.00006122      -0.00822611      -0.00748798
Ti       2.94052141       2.52934400      21.81654930      -0.00227037      -0.00839343      -0.01630758
Ti       5.86746838       2.52937261      21.81652665       0.00220881      -0.00851099      -0.01627820
Ti       2.93725934       6.48306862      22.41850296      -0.00030805      -0.00275073      -0.00845811
Ti       5.87071417       6.48307984      22.41853521       0.00026453      -0.00278755      -0.00857390
Ti       4.40399502       4.33479335      23.59912376       0.00005658      -0.00760015      -0.00059688
Ti       1.46800020       4.33658086      23.60822409      -0.00002094      -0.01052920       0.00075928
Ti       4.40399105       1.52437602      24.08546622      -0.00001977      -0.00963711       0.00787423
Ti       1.46798286       1.52201538      24.08422749       0.00007735      -0.00834675       0.00768544
Ti       2.93825985       6.28485708      25.24268915       0.00012989      -0.01123402       0.01503169
Ti       5.86977471       6.28489981      25.24268674      -0.00023392      -0.01146061       0.01514847
Ti       0.00060269       3.25877834      25.85953209      -0.00050239       0.00111633       0.01378587
Ti       2.93540175       3.25877959      25.85951156       0.00046487       0.00113488       0.01381752
Ti       1.46802356       1.13023354      27.16589010       0.00003894      -0.00997333      -0.00869443
Ti       4.40401379       1.12894057      27.16391830      -0.00006939      -0.00937035      -0.00670824
