64
Lattice="5.872 0.0 0.0 0.0 6.890708 0.0 0.0 0.0 27.394398" Properties=species:S:1:pos:R:3:forces:R:3 job_name=T1g-Zn-Zn-32-d-0.00 GB_type=T1g element=Zn system=Zn-32-d-0.00 distance=0.0 energy=-488.97070847 stress_kbar_3x3="_JSON [[-8.96429036, -0.00015895, -0.00045178], [-0.00015895, -11.83887271, 0.00511728], [-0.00045179, 0.00511728, -20.09330958]]" pbc="T T T"
Ti       4.40472588       5.27991200      27.29210572      -0.00001611      -0.00449311      -0.00265156
Ti       1.46735339       5.28238758      27.29308640       0.00018695      -0.00573593      -0.00408766
Ti       0.00225987       3.31391253       1.30086916      -0.00279585       0.01376928      -0.01027552
Ti       2.93363889       3.31404622       1.30058830       0.00303562       0.01385612      -0.00977605
Ti       5.86594617       6.52147567       1.91988088       0.00293551      -0.00932798      -0.01050461
Ti       2.94204362       6.52118135       1.91918885      -0.00304668      -0.00904250      -0.00960932
Ti       4.40371917       1.72011043       3.10988596       0.00012740      -0.00124875      -0.00758752
Ti       1.46826318       1.71624773       3.10557531      -0.00042194      -0.00200876      -0.00605170
Ti       1.46800414       4.53970095       3.50891778       0.00005203      -0.00273017      -0.00553200
Ti       4.40389728       4.53812982       3.50553370       0.00010264      -0.00317257      -0.00678316
Ti       0.00151385       6.69559055       4.73975599      -0.00009089      -0.00729668      -0.00215217
Ti       2.93447789       6.69567541       4.73935783       0.00000628      -0.00730357      -0.00212632
Ti       2.93379464       2.75120872       5.34111651       0.00153924      -0.00453314      -0.00390934
Ti       0.00225993       2.75134779       5.34095373      -0.00161955      -0.00493073      -0.00362339
Ti       4.40402125       4.90638412       6.49145490      -0.00023386      -0.00568843       0.00268812
Ti       1.46807577       4.90402492       6.49658433       0.00003874      -0.00270595       0.00523056
Ti       4.40394440       0.83575871       7.00659422       0.00001253      -0.00841983       0.00911568
Ti       1.46806017       0.83008043       7.01939276      -0.00018324      -0.01069443       0.00113657
Ti       2.94198716       2.99865443       8.17430308       0.00630355      -0.00441155       0.00370981
Ti       5.86594643       2.99870253       8.17413462      -0.00609525      -0.00476725       0.00404380
Ti       2.93508593       5.90288966       8.77808581      -0.00031580       0.00079655       0.00024115
Ti       0.00100916       5.90286492       8.77797782       0.00005834       0.00105634       0.00034554
Ti       4.40403363       1.18819487       9.91870221       0.00007929       0.00713005       0.00401301
Ti       1.46799546       1.15477631       9.98289673      -0.00014912      -0.00628084       0.00146575
Ti       4.40397938       4.02287349      10.47754990       0.00004534      -0.00856376      -0.00755867
Ti       1.46793203       3.97422215      10.42586556      -0.00005153       0.00742190      -0.00799412
Ti       2.95797816       6.10120020      11.60363925      -0.01015413       0.00206072      -0.00224974
Ti       5.84987156       6.10122872      11.60356321       0.01021939       0.00195160      -0.00216757
Ti       2.96751521       2.28760780      12.18009403       0.00071176       0.00983830      -0.01300561
Ti       5.84042026       2.28759892      12.18016244      -0.00065383       0.00990513      -0.01349776
Ti       1.46793535       4.33544495      13.57494440       0.00010545       0.01903083      -0.00227643
Ti       4.40393212       4.44278804      13.55996109      -0.00000584       0.00623481       0.00683218
Zn       4.40397638       0.39573102      13.59943518      -0.00010649       0.00233471      -0.00361983
Ti       1.46794494       0.27769547      13.58564882       0.00007124      -0.00277241      -0.00691721
Ti       5.84586622       2.29737421      14.97780495      -0.00363578       0.00339621       0.00845445
Ti       2.96209732       2.29738736      14.97780512       0.00363879       0.00324362       0.00806463
Ti       5.86490662       6.05599483      15.55083756      -0.00117620       0.01148444       0.00035363
Ti       2.94300593       6.05598718      15.55077621       0.00117150       0.01143474       0.00059720
Ti       4.40399508       4.00162068      16.68691934      -0.00000289      -0.00313424       0.01148095
Ti       1.46801549       3.94765046      16.74867275       0.00003827      -0.00447972       0.00221569
Ti       4.40403346       1.15952107      17.21818583      -0.00026497      -0.00242724       0.01120355
Ti       1.46797678       1.12433393      17.16455736       0.00032408       0.00376420       0.00908788
Ti       0.00023980       5.87995761      18.37676872      -0.00477293      -0.00128752       0.01400639
Ti       2.93588808       5.87993398      18.37675404       0.00461723      -0.00142852       0.01372319
Ti       2.94568953       2.95635651      18.98483800       0.00077982      -0.00135887       0.00039482
Ti       5.86240959       2.95635110      18.98469996      -0.00082956      -0.00145135       0.00119321
Ti       4.40398930       0.79736141      20.14447155       0.00028474      -0.01337873      -0.00163919
Ti       1.46814111       0.79320777      20.13909790      -0.00020326      -0.01389443      -0.00169154
Ti       1.46809526       4.86236272      20.65695010       0.00027017       0.00206043       0.00031937
Ti       4.40405242       4.86556992      20.66589770      -0.00021425       0.00278925      -0.00251528
Ti       2.93456575       2.70717194      21.81794379       0.00177972      -0.00085597       0.00310247
Ti       0.00158267       2.70725304      21.81788621      -0.00179281      -0.00106653       0.00289220
Ti       2.93492082       6.66408557      22.41962524      -0.00030293      -0.00247801      -0.00250657
Ti       0.00124324       6.66401588      22.41924957       0.00037568      -0.00209645      -0.00239890
Ti       4.40409600       4.50385236      23.63897176      -0.00018144      -0.00085999       0.00041424
Ti       1.46802084       4.50468892      23.63405670       0.00021848       0.00236172       0.00095566
Ti       4.40394821       1.68689656      24.06806193       0.00008083       0.00453487      -0.00188065
Ti       1.46819936       1.68412223      24.07055415      -0.00003596       0.00152848      -0.00182915
Ti       2.94030347       6.47701006      25.24185138      -0.00207212      -0.00078057       0.00675687
Ti       5.86780163       6.47709234      25.24124360       0.00213461      -0.00061288       0.00699225
Ti       0.00201280       3.32238549      25.85897298      -0.00195151       0.01298280       0.00895625
Ti       2.93406430       3.32241536      25.85888641       0.00199011       0.01323324       0.00895933
Ti       1.46784878       1.22902266      27.26645350       0.00014001      -0.00157088      -0.00095951
Ti       4.40409341       1.22521785      27.26646051      -0.00009866       0.00108991       0.00043160
