64
Lattice="5.872 0.0 0.0 0.0 6.890708 0.0 0.0 0.0 27.394398" Properties=species:S:1:pos:R:3:forces:R:3 job_name=T1g-Zr-Zr-48-d-6.96 GB_type=T1g element=Zr system=Zr-48-d-6.96 distance=6.96 energy=-495.87821022 stress_kbar_3x3="_JSON [[-2.45705788, 0.00098518, 0.00174372], [0.00098521, -3.04849836, 0.12432146], [0.00174373, 0.12432146, -9.29945495]]" pbc="T T T"
Ti       4.40400948       4.89375636       0.17282794       0.00025195       0.00011511       0.00153826
Ti       1.46798638       4.89549671       0.16217648      -0.00023645       0.00001149       0.00144000
Ti       0.00181768       2.73781778       1.31805790      -0.00063766       0.00001592       0.00213198
Ti       2.93416880       2.73790450       1.31811979       0.00058714      -0.00008509       0.00208578
Ti       0.00128457       6.68652433       1.91575989      -0.00021000      -0.00155367       0.00083775
Ti       2.93474812       6.68644822       1.91568599       0.00032516      -0.00149283       0.00102717
Ti       4.40403334       1.70975582       3.54212771       0.00001552       0.00004515      -0.00024510
Ti       1.46798215       1.71121326       3.54338826       0.00004421      -0.00044122      -0.00023599
Ti       1.46806735       4.53199144       3.12819369      -0.00006048      -0.00091610       0.00110287
Ti       4.40404456       4.53290049       3.13268962       0.00000650      -0.00159894       0.00096538
Ti       0.00074214       6.51050582       4.71530471      -0.00005047       0.00031720       0.00148717
Ti       2.93528363       6.51051652       4.71527795       0.00015579       0.00023198       0.00118049
Ti       2.93637265       3.32515318       5.32503450      -0.00076818      -0.00155245      -0.00028095
Ti      -0.00024241       3.32514366       5.32506076       0.00072155      -0.00158984      -0.00027159
Ti       4.40386647       5.28604246       6.72952599      -0.00012209      -0.00173385      -0.00116426
Ti       1.46810784       5.28564803       6.72939882       0.00004524      -0.00112547      -0.00086651
Ti       4.40403002       1.23702052       6.73186605       0.00003158      -0.00039967       0.00093021
Ti       1.46812663       1.23670079       6.73232542      -0.00006225      -0.00043024       0.00032788
Ti       2.93544537       3.32174188       8.13765326       0.00084434       0.00066337      -0.00129823
Ti       0.00050477       3.32175533       8.13765455      -0.00079949       0.00069190      -0.00123307
Ti       2.93590219       6.49892008       8.74493531      -0.00011456      -0.00126768       0.00162647
Ti      -0.00001597       6.49890321       8.74489937       0.00021687      -0.00124666       0.00161332
Ti       4.40390747       1.69769991       9.91467911       0.00000779      -0.00160014      -0.00039789
Ti       1.46785159       1.69763075       9.91292857       0.00004889       0.00062669       0.00075771
Ti       4.40395025       4.51728986      10.33033371       0.00018363      -0.00112442       0.00030496
Ti       1.46798095       4.51713160      10.33441597      -0.00004249      -0.00171272      -0.00080750
Ti       2.93482774       6.66873190      11.54557356       0.00016668      -0.00019915      -0.00037922
Ti       0.00111165       6.66876627      11.54547887      -0.00024018      -0.00032147      -0.00036786
Ti       2.93433462       2.71566962      12.14223045      -0.00099466      -0.00040920      -0.00094289
Ti       0.00147942       2.71561415      12.14218237       0.00091398      -0.00041666      -0.00093818
Ti       1.46790672       4.87166932      13.29684037       0.00012999       0.00126148      -0.00023893
Ti       4.40394206       4.86871182      13.28858992      -0.00005523       0.00256904      -0.00039362
Ti       4.40400580       0.79352305      13.79977809      -0.00024656       0.00174137      -0.00041949
Ti       1.46789590       0.79207795      13.80570788       0.00031088       0.00133730      -0.00207106
Ti       5.86647511       2.95632699      14.96148507      -0.00066785       0.00247951       0.00006349
Ti       2.94155391       2.95646450      14.96159534       0.00074920       0.00208711      -0.00035739
Ti       5.87003714       5.87755810      15.55019823      -0.00097559       0.00082847       0.00259552
Ti       2.93796347       5.87745746      15.55029564       0.00093716       0.00123853       0.00217198
Ti       4.40406940       3.96129796      17.22849292      -0.00014665       0.00242271       0.00064443
Ti       1.46804682       3.96569586      17.18565144       0.00011157       0.00159632      -0.00262393
Ti       4.40413070       1.15527198      16.73742064      -0.00004096      -0.00025883      -0.00043993
Ti       1.46801883       1.15690411      16.75967169       0.00013153      -0.00056803      -0.00036057
Ti       5.87124402       6.09997531      18.34241485       0.00022613       0.00095386       0.00064574
Ti       2.93698718       6.09994108      18.34237635      -0.00019658       0.00102959       0.00071520
Ti       2.98598317       2.25826854      18.96729763      -0.00007749       0.00317810       0.00329060
Ti       5.82211563       2.25831767      18.96724855       0.00010464       0.00301884       0.00352081
Ti       4.40415339       0.30182570      20.42569938      -0.00027915      -0.00010143       0.00015427
Ti       1.46807838       0.40631224      20.42288706       0.00016018      -0.00053399       0.00025723
Zr       1.46820553       4.39119856      20.43363673      -0.00111884       0.00089804      -0.00182533
Ti       4.40390256       4.36908271      20.42689011       0.00032803       0.00094340       0.00109740
Ti       2.98378211       2.26138913      21.88726246       0.00083292       0.00099742      -0.00036521
Ti       5.82426281       2.26146292      21.88741816      -0.00076224       0.00098998      -0.00074910
Ti       2.93391574       6.12295464      22.51522199       0.00105655      -0.00358809      -0.00159214
Ti       0.00225877       6.12291266      22.51526813      -0.00100402      -0.00371047      -0.00161367
Ti       4.40403153       3.98194024      23.61850256      -0.00015608       0.00152161       0.00030687
Ti       1.46804766       3.98473710      23.66972627       0.00017042       0.00080991      -0.00036163
Ti       4.40400735       1.17923359      24.12284324      -0.00011637      -0.00149185      -0.00099544
Ti       1.46801427       1.17883095      24.10378532       0.00012334      -0.00032364      -0.00141789
Ti       2.93965957       5.89965183      25.30419518       0.00002146      -0.00013412      -0.00219122
Ti       5.86833749       5.89974269      25.30428389       0.00015898      -0.00053254      -0.00219478
Ti       5.86482012       2.98331076      25.89420053       0.00009870       0.00046106      -0.00220258
Ti       2.94310731       2.98334286      25.89412771      -0.00008267       0.00029063      -0.00218253
Ti       1.46794588       0.81821901      27.05203546      -0.00009627      -0.00152308      -0.00116548
Ti       4.40403011       0.81984568      27.05542991       0.00014303      -0.00138957       0.00037020
