64
Lattice="5.872 0.0 0.0 0.0 6.890708 0.0 0.0 0.0 27.394398" Properties=species:S:1:pos:R:3:forces:R:3 job_name=T1g-Zn-Zn-45-d-5.32 GB_type=T1g element=Zn system=Zn-45-d-5.32 distance=5.32 energy=-488.75528653 stress_kbar_3x3="_JSON [[-12.87212573, 0.00128276, 3.831e-05], [0.00128279, -13.66921818, -0.52768978], [3.831e-05, -0.52768974, -17.97294557]]" pbc="T T T"
Ti       4.39875615       5.21171016      27.38989693       0.00254932       0.00146765       0.00097745
Ti       1.47322643       5.21166589      27.38990021      -0.00245039       0.00133234       0.00095291
Ti       5.87193524       3.19113728       1.28472386       0.00000656      -0.01145695      -0.00343176
Ti       2.93609304       3.18337021       1.27475109      -0.00006974      -0.00547492      -0.00232449
Ti       0.00009840       6.63650512       1.90104633      -0.00012176       0.00058516      -0.00715728
Ti       2.93592592       6.64044990       1.89925315       0.00009771      -0.00207756      -0.00748160
Ti       4.40511287       1.76938422       3.19042130       0.00003537       0.00055739       0.00048747
Ti       1.46683510       1.76941844       3.19042351      -0.00001466       0.00067097       0.00046641
Ti       1.46838678       4.59809011       3.40093586      -0.00283359       0.00235068      -0.00532952
Ti       4.40364698       4.59807714       3.40094584       0.00267680       0.00237732      -0.00540879
Ti       5.87198161       6.72434643       4.71661816       0.00001195      -0.00564702      -0.00178324
Ti       2.93594289       6.72381110       4.71431856      -0.00004111      -0.00173263      -0.00208405
Ti       2.93597732       2.87727636       5.32339878      -0.00003869       0.00397480       0.00335793
Ti       5.87193943       2.87872596       5.32592379       0.00005666       0.00454298      -0.00813037
Ti       4.40256757       5.00663944       6.48307308      -0.00047112       0.00169034      -0.00655153
Ti       1.46929680       5.00665574       6.48308649       0.00057573       0.00156433      -0.00667951
Ti       4.40348555       0.93248015       6.95936185      -0.00091577       0.00265773      -0.00477432
Ti       1.46839602       0.93248206       6.95936745       0.00097273       0.00274593      -0.00478676
Ti       2.93596362       3.09498617       8.14069860       0.00002981       0.00074574      -0.00441930
Ti       5.87193017       3.09154662       8.14268795       0.00010228       0.00232906       0.00203049
Ti       2.93594741       6.02483855       8.74507626       0.00016854       0.00392782      -0.00090447
Ti       5.87199271       6.02495769       8.74057536      -0.00010664       0.00362912       0.00372569
Ti       4.40186586       1.29585833       9.92710564       0.00027926       0.00440904       0.00285125
Ti       1.47013761       1.29586312       9.92710294      -0.00020850       0.00455095       0.00291422
Ti       4.40230097       4.11014733      10.40194978       0.00045611       0.00300081       0.01170471
Ti       1.46966269       4.11016349      10.40196366      -0.00037371       0.00286733       0.01169980
Ti       2.93601664       6.25083183      11.56539586       0.00000153       0.00422444       0.01091111
Ti       0.00005816       6.24566144      11.55785944      -0.00002880       0.00543123       0.00874399
Ti       2.93607110       2.38943871      12.18685281      -0.00016214       0.00418826      -0.00717161
Ti       0.00002099       2.38806778      12.16451726      -0.00003746       0.00223171      -0.00715138
Ti       1.47047996       4.53212549      13.47861791       0.00191952       0.00801213      -0.01248778
Ti       4.40170306       4.53210731      13.47859236      -0.00218667       0.00825912      -0.01226484
Ti       4.40208233       0.45372460      13.71123098      -0.00279185      -0.00298063       0.01306925
Ti       1.47001590       0.45376730      13.71124422       0.00271289      -0.00296304       0.01307705
Ti       5.87198301       2.51047131      14.95307542       0.00006419       0.00932344       0.00684510
Ti       2.93615142       2.49468379      14.99636497      -0.00002263       0.01294244       0.00719985
Ti       0.00016894       5.88820181      15.62545022      -0.00004735      -0.00589646      -0.00229677
Ti       2.93600963       5.89855265      15.60600529       0.00004074      -0.00753550       0.00439151
Ti       4.43419042       3.86879067      16.92093336       0.00283736      -0.00437759       0.00915271
Ti       1.43791955       3.86877408      16.92092621      -0.00284480      -0.00462463       0.00898147
Ti       4.42408812       1.09544736      17.10483921      -0.00335547      -0.01230881      -0.00504293
Ti       1.44817709       1.09543254      17.10484883       0.00306509      -0.01205046      -0.00504242
Ti       0.00009507       5.75949082      18.42083520      -0.00010694       0.00899629      -0.00283558
Ti       2.93603196       5.85999520      18.39828650       0.00008126       0.00559120       0.00477820
Ti       2.93602774       2.86483326      19.09218407       0.00004963      -0.01227642       0.00800596
Zn       0.00003246       2.83238824      19.02624484       0.00001320      -0.01469122       0.00752817
Ti       4.42169668       0.68957517      20.16100834       0.00114909       0.00188433       0.00591929
Ti       1.45028022       0.68955647      20.16100317      -0.00108125       0.00186711       0.00598008
Ti       1.49448649       4.72472654      20.65756554       0.00435725       0.00166772       0.00016740
Ti       4.37754962       4.72473908      20.65754741      -0.00430867       0.00166309       0.00015791
Ti       2.93599089       2.56018069      21.91533919       0.00005365       0.00235991      -0.01634767
Ti       5.87197473       2.55006351      21.81680040       0.00002399      -0.00692720       0.00749932
Ti       2.93600452       6.52291629      22.41016338      -0.00011889      -0.00146984      -0.00049852
Ti       5.87196698       6.57641824      22.37322096       0.00007697      -0.00637871      -0.00218118
Ti       4.42575098       4.38183036      23.61554811      -0.00392087       0.00331572      -0.00206419
Ti       1.44622983       4.38181013      23.61556562       0.00398061       0.00346100      -0.00205431
Ti       4.42688820       1.54344615      24.09667190      -0.00022592       0.00062682       0.00233071
Ti       1.44504552       1.54345611      24.09667593       0.00034640       0.00051461       0.00230164
Ti       2.93599730       6.31546459      25.25377592      -0.00005903      -0.00552683      -0.00070677
Ti       0.00003423       6.30613000      25.24386395      -0.00005984       0.00558491       0.00159981
Ti       5.87196531       3.28487636      25.86364882       0.00017169      -0.00661238      -0.00345552
Ti       2.93599835       3.27439807      25.84150162       0.00006146      -0.00188747      -0.00420737
Ti       1.46742226       1.15142342      27.16712736      -0.00048882      -0.00456136      -0.00639807
Ti       4.40463510       1.15146501      27.16712225       0.00046773      -0.00466538      -0.00635492
