64
Lattice="5.872 0.0 0.0 0.0 6.890708 0.0 0.0 0.0 27.394398" Properties=species:S:1:pos:R:3:forces:R:3 job_name=T1g-Zr-Zr-47-d-6.48 GB_type=T1g element=Zr system=Zr-47-d-6.48 distance=6.48 energy=-495.64086611 stress_kbar_3x3="_JSON [[-3.01099876, 0.00032121, 0.00015643], [0.00032121, -2.01426651, 1.2056421], [0.00015644, 1.20564208, -10.26292344]]" pbc="T T T"
Ti       4.40399719       5.20585652       0.01639408       0.00000064       0.00237753      -0.00609803
Ti       1.46799030       5.20454035       0.02018879      -0.00005788       0.00207939      -0.00635729
Ti       5.86874428       3.18950085       1.30597842       0.00011900       0.00348045       0.00195047
Ti       2.93921031       3.18947838       1.30599869      -0.00012725       0.00354663       0.00207629
Ti       0.00272649       6.62070879       1.92064145      -0.00004796      -0.00470197      -0.00281184
Ti       2.93324353       6.62071287       1.92064796      -0.00001258      -0.00479571      -0.00309619
Ti       4.40400345       1.75758845       3.19533355       0.00006421      -0.00076190      -0.00143476
Ti       1.46796533       1.75866629       3.19536594      -0.00009380      -0.00074805      -0.00116063
Ti       1.46796541       4.58998309       3.42007283      -0.00002296      -0.00472578       0.00355508
Ti       4.40396676       4.58972365       3.42020882       0.00007197      -0.00493630       0.00374076
Ti       0.00023739       6.71765446       4.72481500       0.00025495      -0.00231465       0.00423963
Ti       2.93570688       6.71766120       4.72478583      -0.00027424      -0.00238937       0.00463909
Ti       2.93663595       2.86664377       5.32696007       0.00022359      -0.00399737       0.00039491
Ti       5.87132105       2.86665320       5.32695807      -0.00028042      -0.00413017       0.00002852
Ti       4.40396472       4.99484904       6.48233312      -0.00017619      -0.00334152      -0.00094656
Ti       1.46800809       4.99479954       6.48232255       0.00012172      -0.00333112      -0.00084450
Ti       4.40395248       0.92541082       6.95961064      -0.00003855      -0.00528026       0.00010717
Ti       1.46797889       0.92571394       6.95925545       0.00010077      -0.00535845       0.00033254
Ti       2.93641208       3.07895766       8.13725620      -0.00004649      -0.00365321       0.00132706
Ti       5.87159052       3.07898342       8.13724316      -0.00004692      -0.00370661       0.00186157
Ti       2.93604814       6.01522851       8.73096047      -0.00014980      -0.00468910      -0.00086799
Ti       5.87189930       6.01522197       8.73095853       0.00025055      -0.00471459      -0.00033227
Ti       4.40400339       1.27696208       9.91845185       0.00019102      -0.00321110       0.00249885
Ti       1.46801461       1.27742883       9.91823601      -0.00026715      -0.00278419       0.00244710
Ti       4.40400207       4.09530313      10.38365532       0.00034905      -0.00647149      -0.00098680
Ti       1.46799683       4.09370107      10.38319426      -0.00036478      -0.00617207      -0.00055905
Ti       2.93182980       6.20790227      11.53507441      -0.00071913      -0.00787664      -0.00072131
Ti       0.00422681       6.20790364      11.53507933       0.00068379      -0.00816182      -0.00128019
Ti       2.93925811       2.39321669      12.14295479      -0.00037943       0.00034115      -0.00636246
Ti       5.86874944       2.39323100      12.14295316       0.00034567       0.00049655      -0.00687216
Ti       1.46800548       4.50421023      13.48727531       0.00002536       0.00068333       0.00629993
Ti       4.40399741       4.50492585      13.48841600      -0.00000112      -0.00101731       0.00639901
Ti       4.40400593       0.44220763      13.62910394      -0.00020844      -0.00558111      -0.00768591
Ti       1.46804409       0.44510493      13.63458675       0.00007161      -0.00691756      -0.00840251
Ti       5.85724037       2.43499224      14.94604088      -0.00002549      -0.00172919       0.00607948
Ti       2.95082894       2.43503243      14.94601875       0.00001562      -0.00209615       0.00571007
Ti       0.01102684       5.97415873      15.56541583      -0.00080308       0.00459476      -0.00425242
Ti       2.92502230       5.97414091      15.56544584       0.00087003       0.00453657      -0.00401243
Ti       4.40406515       3.91545251      16.78763283      -0.00015468      -0.00027021      -0.00982643
Ti       1.46807220       3.90214740      16.82101126       0.00004362       0.00340727      -0.01001220
Ti       4.40404925       1.10029273      17.11931814      -0.00003876       0.00833534       0.00518767
Ti       1.46805405       1.08672579      17.05829205      -0.00003722       0.00975950       0.01267240
Ti       5.85631470       5.80727871      18.36475814       0.00692881       0.00682993       0.00724855
Ti       2.95183073       5.80727637      18.36473709      -0.00699072       0.00656474       0.00690573
Ti       2.98197972       2.88739946      18.98903498      -0.00983854       0.00194973      -0.00190528
Ti       5.82614633       2.88740850      18.98902318       0.00991764       0.00154715      -0.00147516
Ti       4.40404310       0.71234205      20.19831133       0.00057670       0.00203310      -0.00308015
Zr       1.46800719       0.70771252      20.19145031       0.00003321       0.00548135      -0.00741816
Ti       1.46807416       4.70375049      20.66079979      -0.00011150       0.01289141      -0.00046088
Ti       4.40410497       4.79767665      20.67904678       0.00002988       0.00757284      -0.00179328
Ti       2.97685352       2.63226253      21.88041188      -0.00593872       0.00037943      -0.00098777
Ti       5.83122509       2.63225986      21.88042628       0.00597532       0.00020762      -0.00146072
Ti       2.96619793       6.52515368      22.50910385      -0.00657312       0.00622433      -0.00498845
Ti       5.84186957       6.52514355      22.50912998       0.00660868       0.00645156      -0.00576253
Ti       4.40402569       4.37968853      23.66753790      -0.00026761      -0.00082505       0.00695669
Ti       1.46798658       4.38411512      23.66303876       0.00022837       0.00155726       0.00669011
Ti       4.40404294       1.56451103      24.13849858      -0.00031787       0.00778346       0.00671871
Ti       1.46799983       1.55751947      24.11310018       0.00029521       0.00499060       0.00532687
Ti       2.93142558       6.33399422      25.29648250      -0.00096814       0.00237914       0.00454095
Ti       0.00454710       6.33398718      25.29649674       0.00098371       0.00222637       0.00509213
Ti       0.00160596       3.26592512      25.89568140      -0.00017963       0.00205667      -0.00322753
Ti       2.93438962       3.26590252      25.89569837       0.00016709       0.00204344      -0.00355599
Ti       1.46796296       1.14638888      27.20972463      -0.00002132      -0.00176630       0.00016866
Ti       4.40395099       1.14857611      27.21932624       0.00003368      -0.00235224      -0.00015617
