64
Lattice="5.872 0.0 0.0 0.0 6.890708 0.0 0.0 0.0 27.394398" Properties=species:S:1:pos:R:3:forces:R:3 job_name=T1g-Zr-Zr-44-d-5.32 GB_type=T1g element=Zr system=Zr-44-d-5.32 distance=5.32 energy=-495.67010954 stress_kbar_3x3="_JSON [[-2.76264734, -0.00032797, -0.00045886], [-0.00032796, -2.55153964, 0.28312819], [-0.00045889, 0.2831282, -10.44023432]]" pbc="T T T"
Ti       4.40061078       5.21378583       0.01549933      -0.00040274      -0.00044494      -0.00213160
Ti       1.47134535       5.21372128       0.01550205       0.00048523      -0.00040932      -0.00214413
Ti       5.87190706       3.19087083       1.30181526      -0.00003332      -0.00046360      -0.00001511
Ti       2.93613084       3.18943097       1.29012546      -0.00005685      -0.00021882       0.00533544
Ti       0.00012483       6.63461103       1.91332724      -0.00017174       0.00195424       0.00534485
Ti       2.93589950       6.63429924       1.91202037       0.00008481       0.00033669       0.00505587
Ti       4.40070794       1.76791972       3.19335581      -0.00112741      -0.00130396       0.01095971
Ti       1.47119872       1.76796858       3.19340242       0.00123095      -0.00125553       0.01093905
Ti       1.46945949       4.59794973       3.40774089       0.00024332       0.00032908       0.01008950
Ti       4.40255230       4.59791597       3.40774925      -0.00019701       0.00042129       0.01009059
Ti       5.87197887       6.72507304       4.72160787      -0.00001675      -0.00409020       0.00136523
Ti       2.93595006       6.72507720       4.71955257      -0.00000257      -0.00399281       0.00385495
Ti       2.93598184       2.87719689       5.32479611       0.00002789       0.00465270      -0.00021365
Ti       5.87191659       2.87732559       5.32530253      -0.00001868       0.00307048      -0.00215662
Ti       4.40518960       5.00541394       6.48215274       0.00047828      -0.00268834      -0.00799684
Ti       1.46668061       5.00540447       6.48213069      -0.00039807      -0.00267082      -0.00787261
Ti       4.40443084       0.93377056       6.95880104       0.00044085       0.00032978      -0.00877725
Ti       1.46746181       0.93380887       6.95878311      -0.00036077       0.00020008      -0.00882244
Ti       2.93596982       3.09303504       8.13819759       0.00010899       0.00472666      -0.00438637
Ti       5.87195507       3.09325268       8.14192792       0.00007825       0.00695342      -0.00341136
Ti       2.93595668       6.02365291       8.73103110       0.00006719      -0.00516029      -0.00325136
Ti       5.87196562       6.02176494       8.74097174      -0.00003369      -0.00701753       0.00030456
Ti       4.40033890       1.29150316       9.91611286       0.00019328      -0.00033906       0.00263008
Ti       1.47168949       1.29149368       9.91613957      -0.00017448      -0.00031053       0.00254812
Ti       4.40401068       4.11152421      10.39186449       0.00079352       0.00157367       0.00171043
Ti       1.46797057       4.11153639      10.39185127      -0.00080562       0.00154492       0.00182480
Ti       2.93603879       6.23894888      11.53873815       0.00001102      -0.00799643      -0.00541583
Ti       0.00003662       6.23550864      11.55673698       0.00006655      -0.00713811      -0.00001227
Ti       2.93604723       2.39333710      12.16283146       0.00008546       0.00601185      -0.00377315
Ti       0.00002624       2.39500647      12.13059349       0.00001533       0.00486541      -0.00468163
Ti       1.47889361       4.51724474      13.46472804       0.00207207      -0.00148040      -0.00825477
Ti       4.39334250       4.51724464      13.46470281      -0.00222846      -0.00145339      -0.00812981
Ti       4.36616260       0.45601539      13.66977601      -0.00469105      -0.00145914      -0.01319046
Ti       1.50596807       0.45605041      13.66979860       0.00473353      -0.00154940      -0.01328585
Ti       0.00004746       2.45730659      14.92336419       0.00005294       0.00328015      -0.01525278
Ti       2.93612775       2.49302185      14.97728194      -0.00000102       0.00921704      -0.00856870
Ti       0.00013240       5.95544262      15.55006683      -0.00009803      -0.00403277      -0.01162252
Ti       2.93604989       5.92390925      15.59946355       0.00000936      -0.00742974      -0.00097218
Ti       4.47195352       3.92192817      16.80783089      -0.00491231       0.00134482       0.01080349
Ti       1.40016391       3.92188776      16.80780105       0.00492867       0.00131506       0.01100180
Ti       4.45039454       1.04884526      17.04535441      -0.00426240       0.00430175       0.01012713
Ti       1.42179193       1.04884178      17.04534180       0.00407125       0.00434692       0.00996125
Ti       0.00006709       5.81675759      18.38555419       0.00000139      -0.00470198       0.00114906
Ti       2.93604847       5.88939474      18.43419336       0.00001024      -0.00638531      -0.00241742
Zr       2.93609622       2.78055597      18.99666580      -0.00107719       0.00037789       0.00973582
Ti      -0.00001369       2.78089149      18.99216622       0.00036737       0.00211684       0.00318703
Ti       4.44743408       0.62463146      20.22789284      -0.00513680       0.01447655      -0.00750501
Ti       1.42454768       0.62463368      20.22788506       0.00527578       0.01455372      -0.00745127
Ti       1.45043998       4.76794407      20.69878636       0.00290809      -0.00982816      -0.00847799
Ti       4.42159333       4.76796354      20.69879398      -0.00280510      -0.00981209      -0.00843279
Ti       2.93599143       2.58192870      21.90976744       0.00000995      -0.00304237      -0.00671362
Ti       5.87198472       2.57443143      21.84331948      -0.00000226      -0.00206197      -0.00251828
Ti       2.93599070       6.53672790      22.47035301       0.00001700       0.00655051       0.01003039
Ti      -0.00002399       6.54921509      22.49446274       0.00001348       0.00751419       0.00997557
Ti       4.41032457       4.37551562      23.65070097      -0.00218269      -0.00377818       0.00713269
Ti       1.46162533       4.37549532      23.65069821       0.00225259      -0.00367112       0.00715349
Ti       4.41326960       1.56658268      24.12455746      -0.00199933      -0.00084684       0.00487601
Ti       1.45867534       1.56659189      24.12457721       0.00205137      -0.00089966       0.00476846
Ti       2.93596287       6.32135558      25.27556868       0.00002797       0.00471261       0.00292667
Ti      -0.00002374       6.32178626      25.28919091      -0.00000122       0.00174335       0.00580220
Ti       0.00000007       3.27957154      25.89501544      -0.00011300      -0.00173881       0.00527911
Ti       2.93601543       3.28026829      25.87782255       0.00008225      -0.00465591       0.00226719
Ti       1.46923428       1.15187248      27.19504332       0.00077191       0.00075108      -0.00014847
Ti       4.40284522       1.15188780      27.19507857      -0.00075757       0.00075474      -0.00022638
