64
Lattice="5.872 0.0 0.0 0.0 6.890708 0.0 0.0 0.0 27.394398" Properties=species:S:1:pos:R:3:forces:R:3 job_name=T1g-Zr-Zr-33-d-0.00 GB_type=T1g element=Zr system=Zr-33-d-0.00 distance=0.0 energy=-495.61853381 stress_kbar_3x3="_JSON [[-2.1797451, 0.00162573, 0.00494219], [0.00162571, -2.84804061, -1.25544063], [0.00494222, -1.25544063, -9.78881054]]" pbc="T T T"
Ti       4.40404682       5.12695351       0.10069605      -0.00030225       0.00032720       0.00233683
Ti       1.46780039       5.12753585       0.09984607       0.00021361      -0.00195641       0.00054020
Ti       0.00020269       3.03872343       1.27755841      -0.00082439       0.00010730      -0.00012534
Ti       2.93584165       3.03875705       1.27725111       0.00055909       0.00016470       0.00061676
Ti       5.87098401       6.74169582       1.88695716      -0.00024513       0.00063323       0.00062195
Ti       2.93693528       6.74165761       1.88696883       0.00023709       0.00081638       0.00040075
Ti       4.40371696       1.81274448       3.29212926      -0.00042745       0.00109398      -0.00362806
Ti       1.46825083       1.81319867       3.29117121       0.00043078      -0.00010509      -0.00191380
Ti       1.46810550       4.65536037       3.29311661      -0.00005383       0.00150762      -0.00037598
Ti       4.40398008       4.65390461       3.29427078       0.00000708       0.00220047      -0.00099119
Ti       0.00048524       6.73975157       4.69922992      -0.00043208       0.00188504      -0.00033578
Ti       2.93564706       6.73974558       4.69936325       0.00053533       0.00187990      -0.00062489
Ti       2.93579702       3.03338207       5.30966574      -0.00067534      -0.00037838      -0.00380722
Ti       0.00019312       3.03325495       5.30941951       0.00065470      -0.00028842      -0.00380866
Ti       4.40417116       5.11869029       6.48621092      -0.00030840       0.00335732       0.00437207
Ti       1.46794116       5.12049709       6.48265409      -0.00008228       0.00003009       0.00377837
Ti       4.40409933       1.05121193       6.88570937       0.00006267       0.00293355       0.00193896
Ti       1.46808699       1.04966493       6.89542751      -0.00015539       0.00175602      -0.00177302
Ti       2.93290019       3.19814771       8.10980485       0.00187252      -0.00371867       0.00143001
Ti       0.00331594       3.19820105       8.10959787      -0.00167800      -0.00366014       0.00083163
Ti       2.93333424       6.16370941       8.70243016      -0.00036673       0.00002515      -0.00170423
Ti       0.00283000       6.16355381       8.70243783       0.00038741       0.00033849      -0.00231949
Ti       4.40412448       1.42377325       9.86043317       0.00002172      -0.00150926       0.00526419
Ti       1.46805501       1.41554171       9.88443846       0.00017360      -0.00437881       0.00458229
Ti       4.40408541       4.24146533      10.35712540       0.00003241       0.00039729       0.00027120
Ti       1.46801943       4.24497777      10.36561394      -0.00012644      -0.00208773      -0.00203053
Ti       2.96617892       6.38547232      11.49872473       0.00353783      -0.00246456      -0.00521970
Ti       5.84205945       6.38554228      11.49872742      -0.00359844      -0.00249659      -0.00470246
Ti       2.97669559       2.50509723      12.12503835       0.00200230       0.00359380      -0.00029563
Ti       5.83146928       2.50507058      12.12506293      -0.00231537       0.00344894      -0.00005964
Ti       1.46793630       4.57235529      13.37909128       0.00059915      -0.00333158       0.00539569
Ti       4.40411626       4.66925951      13.35338289      -0.00027286       0.00078879      -0.00077003
Ti       4.40411117       0.58150578      13.79528672       0.00055326      -0.00056941      -0.00021125
Zr       1.46767735       0.58671015      13.79987026      -0.00012003       0.00278652       0.00594454
Ti       5.81379516       2.73078781      15.00816385      -0.00714029       0.00585680      -0.00348437
Ti       2.99438335       2.73083567      15.00819940       0.00681814       0.00647651      -0.00298244
Ti       5.84391879       5.76445372      15.63902717      -0.00445524      -0.00122908       0.00137483
Ti       2.96425223       5.76442883      15.63905210       0.00451381      -0.00216263       0.00259212
Ti       4.40400817       3.85170762      17.11273883      -0.00025560       0.00020820      -0.00007147
Ti       1.46798980       3.83930235      17.05781705       0.00055797      -0.00775285       0.00284448
Ti       4.40401819       1.02529304      16.99112912       0.00020725       0.00418407      -0.00211109
Ti       1.46806597       1.00887260      17.05358541      -0.00004648      -0.00757490       0.00121009
Ti       0.00811991       5.84221545      18.45371748      -0.00047103       0.00314391      -0.00321715
Ti       2.92790819       5.84225493      18.45363755       0.00042793       0.00236497      -0.00361766
Ti       2.92978799       2.59937943      19.07196389       0.00024249      -0.00142761       0.00071641
Ti       0.00632220       2.59936052      19.07192191      -0.00043364      -0.00188557       0.00160863
Ti       4.40399843       0.53249564      20.25433653      -0.00020943       0.00217635      -0.00248410
Ti       1.46791517       0.52568527      20.26205264       0.00013496      -0.00293905      -0.00098609
Ti       1.46803271       4.60126408      20.63482359      -0.00020769      -0.00187086      -0.00032591
Ti       4.40398283       4.60375698      20.62219617       0.00005936       0.00416804      -0.00085535
Ti       2.93789641       2.46051304      21.86526720       0.00129893       0.00147932       0.00338437
Ti       5.86992124       2.46051231      21.86512442      -0.00080715       0.00163106       0.00313542
Ti       2.93722137       6.38315791      22.46332974       0.00282888       0.00104753       0.00089988
Ti       5.87062192       6.38319599      22.46325237      -0.00296438       0.00108058       0.00097733
Ti       4.40393668       4.23866147      23.61635624       0.00022310       0.00162370       0.00146328
Ti       1.46794947       4.23914642      23.62259786      -0.00033507       0.00025961       0.00017633
Ti       4.40384015       1.42044285      24.11556266       0.00025436       0.00046845       0.00094730
Ti       1.46794332       1.41939871      24.11444410      -0.00032592      -0.00335805      -0.00208659
Ti       2.93705526       6.16033429      25.27519782       0.00060109      -0.00029448       0.00081521
Ti       5.87081774       6.16026872      25.27526420      -0.00061227      -0.00047312       0.00105465
Ti       5.87156249       3.20687364      25.87111610      -0.00083149      -0.00222889      -0.00266508
Ti       2.93626068       3.20681413      25.87089815       0.00075987      -0.00240477      -0.00268364
Ti       1.46795084       1.05876384      27.08788220       0.00030349      -0.00234653       0.00288672
Ti       4.40397499       1.05855916      27.08889744      -0.00003210      -0.00134746      -0.00214466
