64
Lattice="5.872 0.0 0.0 0.0 6.890708 0.0 0.0 0.0 27.394398" Properties=species:S:1:pos:R:3 job_name=T1g-Cu-Cu-39-d-3.19 GB_type=T1g element=Cu system=Cu-39-d-3.19 distance=3.19 energy=-491.31167076 pbc="T T T"
Ti       4.40406754       5.21779777      27.37648128
Ti       1.46793527       5.22182632      27.36963344
Ti       0.00586793       3.18900936       1.26981175
Ti       2.93015089       3.18900190       1.26979918
Ti       5.87009007       6.64821338       1.89537653
Ti       2.93786083       6.64816684       1.89534004
Ti       4.40394444       1.77647668       3.19886008
Ti       1.46806575       1.77619229       3.19974732
Ti       1.46798767       4.60252113       3.40060703
Ti       4.40396375       4.60488558       3.40112171
Ti       5.87084799       6.73475188       4.72618967
Ti       2.93713657       6.73477469       4.72614763
Ti       2.93463327       2.88877486       5.34203474
Ti       0.00136061       2.88878422       5.34194607
Ti       4.40399752       5.02158515       6.50017967
Ti       1.46799727       5.02276663       6.50317449
Ti       4.40399159       0.95160156       6.98892655
Ti       1.46800029       0.94881377       6.98026759
Ti       2.93770036       3.12430545       8.17841717
Ti       5.87030500       3.12428459       8.17839252
Ti       2.93687233       6.04194266       8.77907170
Ti       5.87112845       6.04197529       8.77906985
Ti       4.40402556       1.32146221       9.94952248
Ti       1.46797819       1.32601459       9.93928973
Ti       4.40401141       4.14984737      10.46705427
Ti       1.46796531       4.15019063      10.45792412
Ti       2.92582357       6.32216879      11.62216510
Ti       0.01018595       6.32218079      11.62208500
Ti       2.93448646       2.37339843      12.22306492
Ti       0.00153967       2.37337657      12.22303129
Ti       1.46801708       4.55927621      13.40672279
Ti       4.40400568       4.52794463      13.47241888
Ti       4.40401323       0.45979196      13.84061995
Ti       1.46798627       0.51304838      13.91036232
Ti       0.01797278       2.58277212      15.05186353
Ti       2.91809146       2.58277846      15.05189560
Ti       0.04142394       5.74034811      15.62826345
Ti       2.89463963       5.74030521      15.62833545
Ti       4.40392206       3.74034006      16.96127833
Cu       1.46809919       3.85882835      16.91227992
Ti       4.40398155       0.90708613      17.02414468
Ti       1.46801925       1.03030246      17.06049932
Ti       0.05032520       5.76316955      18.39310639
Ti       2.88577263       5.76312956      18.39299296
Ti       2.88136614       2.78809349      18.94663567
Ti       0.05470429       2.78805650      18.94673438
Ti       4.40402686       0.64288300      20.11989518
Ti       1.46802395       0.67454405      20.06847040
Ti       1.46805877       4.74898406      20.66731164
Ti       4.40399338       4.71293552      20.58142605
Ti       2.93684076       2.56403819      21.78258888
Ti      -0.00075685       2.56403545      21.78263092
Ti       2.93579318       6.56293765      22.37984495
Ti       0.00027120       6.56289836      22.37986157
Ti       4.40407486       4.38882903      23.56099991
Ti       1.46798688       4.39486693      23.58195734
Ti       4.40406983       1.57105221      24.06031777
Ti       1.46796354       1.57225522      24.06093702
Ti       2.93860614       6.32445577      25.21971841
Ti       5.86941823       6.32452193      25.21963208
Ti       5.86978591       3.29590332      25.83026368
Ti       2.93823729       3.29593365      25.83024266
Ti       1.46797321       1.15510565      27.15008683
Ti       4.40401687       1.15730688      27.14398943
