64
Lattice="5.872 0.0 0.0 0.0 6.890708 0.0 0.0 0.0 27.394398" Properties=species:S:1:pos:R:3:forces:R:3 job_name=T1g-Al-Al-38-d-3.19 GB_type=T1g element=Al system=Al-38-d-3.19 distance=3.19 energy=-492.04835454 stress_kbar_3x3="_JSON [[-9.99437774, -0.00012642, 7.507e-05], [-0.00012641, -10.01694301, 0.31386326], [7.506e-05, 0.31386325, -19.82461621]]" pbc="T T T"
Ti       4.40372405       5.21357142      27.39325507       0.00037588       0.00031685      -0.00623936
Ti       1.46818926       5.21131979      -0.00030447      -0.00041965      -0.00029727      -0.00310426
Ti       5.86758542       3.18951881       1.28491906      -0.00272492      -0.00366966      -0.00497751
Ti       2.94033242       3.18936926       1.28510608       0.00293598      -0.00348347      -0.00526634
Ti       0.00076016       6.63514713       1.90194499       0.00153994       0.00010808       0.00094006
Ti       2.93530912       6.63531625       1.90221002      -0.00163714      -0.00004345       0.00071673
Ti       4.40412507       1.76757723       3.18984166      -0.00031331      -0.00111571       0.00239529
Ti       1.46776084       1.76758862       3.18971331       0.00027683       0.00058070       0.00294223
Ti       1.46799155       4.59956580       3.40503095      -0.00004593      -0.00011681      -0.00060063
Ti       4.40405101       4.59788039       3.40533892      -0.00001599      -0.00068464      -0.00000584
Ti       0.00023085       6.72566069       4.71855548       0.00139698      -0.00188786       0.00148945
Ti       2.93563629       6.72563562       4.71876222      -0.00132386      -0.00179085       0.00125420
Ti       2.93756219       2.87727250       5.32634374       0.00025719       0.00002157       0.00577978
Ti       5.87029662       2.87725010       5.32643497      -0.00021095      -0.00002606       0.00571802
Ti       4.40392915       5.00546692       6.48216269       0.00000106      -0.00017383       0.00597489
Ti       1.46786664       5.00326973       6.48246324       0.00006806      -0.00033987       0.00653776
Ti       4.40397828       0.93493027       6.96415107      -0.00007362       0.00038273       0.00413838
Ti       1.46788923       0.93444699       6.96366596       0.00001571       0.00053846       0.00591428
Ti       2.93531771       3.09160954       8.14856644       0.00073614       0.00118363       0.00534932
Ti       0.00057858       3.09161784       8.14863932      -0.00071567       0.00120292       0.00535099
Ti       2.93656050       6.02430735       8.74672314       0.00148381       0.00342075       0.00723928
Ti       5.87128834       6.02430747       8.74685843      -0.00130530       0.00332732       0.00672189
Ti       4.40399048       1.28967142       9.92774286      -0.00000624       0.00376504       0.01035345
Ti       1.46801155       1.28597406       9.92809907      -0.00004025      -0.00020613       0.00901273
Ti       4.40398519       4.11414253      10.41833381      -0.00002039       0.00356794       0.00601112
Ti       1.46798304       4.11485698      10.40851455      -0.00002164       0.00458992       0.00439108
Ti       2.94677898       6.23957870      11.56598234       0.00207639       0.00013598       0.00507514
Ti       5.86128794       6.23957405      11.56610724      -0.00202348       0.00014690       0.00486669
Ti       2.93296918       2.40631906      12.18119600      -0.00037344       0.00316420       0.00445251
Ti       0.00312034       2.40634830      12.18120600       0.00035034       0.00315374       0.00448410
Ti       1.46815546       4.51607303      13.47966332      -0.00007493       0.00675026       0.00363840
Ti       4.40409054       4.53049825      13.48666492      -0.00002630      -0.00370709       0.01749701
Ti       4.40397149       0.48909487      13.73081444       0.00009935       0.00384344       0.00907372
Ti       1.46813103       0.46084301      13.70462003      -0.00001604      -0.00130900      -0.00075734
Ti       0.02532391       2.45944850      15.01626227       0.01111777      -0.01129168       0.00442337
Ti       2.91092065       2.45954326      15.01624342      -0.01123159      -0.01154326       0.00439214
Ti       5.85767455       5.92718066      15.59685894      -0.00078192       0.00186692       0.00294432
Ti       2.95045730       5.92713281      15.59693196       0.00076917       0.00194487       0.00291863
Al       4.40408788       3.92168239      16.85076779      -0.00000363      -0.00917412      -0.01583645
Ti       1.46805561       3.84698426      16.89216233      -0.00000376      -0.00879736      -0.00212074
Ti       4.40419063       1.11806774      17.11704098      -0.00024159      -0.00021149       0.00218012
Ti       1.46812876       1.01402928      17.11192549      -0.00001469      -0.01051730       0.00137338
Ti       5.84174782       5.80710385      18.40150283      -0.00447103      -0.01259623      -0.00796536
Ti       2.96640751       5.80711881      18.40156594       0.00449029      -0.01256858      -0.00808679
Ti       2.95528644       2.80708671      18.98878111       0.00780372       0.00630083      -0.00494752
Ti       5.85283064       2.80710579      18.98881962      -0.00780243       0.00643255      -0.00484433
Ti       4.40403353       0.69572381      20.14236799      -0.00008748      -0.00054193      -0.01538741
Ti       1.46796595       0.66360528      20.18139397       0.00006314       0.00245472      -0.01375184
Ti       1.46799280       4.72478457      20.63789376       0.00006216       0.00428553      -0.00727541
Ti       4.40404656       4.76138514      20.69301845      -0.00008033       0.00389993       0.00670708
Ti       2.93402792       2.57861041      21.82377773       0.00185702      -0.00515680      -0.00495583
Ti       0.00190968       2.57858039      21.82383973      -0.00172228      -0.00504531      -0.00505947
Ti       2.94388869       6.54465483      22.43050590      -0.00014564       0.00807251      -0.00564968
Ti       5.86410122       6.54467228      22.43067644       0.00027724       0.00798457      -0.00586193
Ti       4.40399589       4.38244925      23.61965934      -0.00002978       0.00472060      -0.00040892
Ti       1.46804139       4.37713450      23.61042387      -0.00013035       0.00443185      -0.00582125
Ti       4.40395576       1.55974751      24.09960503       0.00006342       0.00124177      -0.00459883
Ti       1.46793142       1.55545828      24.09499852       0.00019437       0.00666764      -0.00448905
Ti       2.93521475       6.32082432      25.25467560      -0.00245313       0.00043634      -0.00527675
Ti       0.00068250       6.32082882      25.25488898       0.00262133       0.00048635      -0.00542332
Ti       0.00053208       3.28148674      25.86011107       0.00038851       0.00348801      -0.00536682
Ti       2.93555913       3.28151419      25.86022203      -0.00054461       0.00345320      -0.00542943
Ti       1.46816528       1.15356884      27.17625811      -0.00012673      -0.00095540      -0.00869466
Ti       4.40405113       1.15273221      27.17615715      -0.00006179      -0.00111750      -0.00405447
