64
Lattice="5.872 0.0 0.0 0.0 6.890708 0.0 0.0 0.0 27.394398" Properties=species:S:1:pos:R:3 job_name=T1g-Cu-Cu-45-d-5.32 GB_type=T1g element=Cu system=Cu-45-d-5.32 distance=5.32 energy=-491.05636319 pbc="T T T"
Ti       4.39960977       5.20157602       0.01196283
Ti       1.47239467       5.20155903       0.01196967
Ti      -0.00000565       3.16248320       1.27301300
Ti       2.93603711       3.15549938       1.25837765
Ti       0.00002873       6.68078497       1.88499358
Ti       2.93599377       6.68518608       1.88326165
Ti       4.40080773       1.79781760       3.21092428
Ti       1.47120951       1.79782974       3.21091516
Ti       1.46923803       4.62814402       3.36435081
Ti       4.40283116       4.62815990       3.36436317
Ti       0.00002184       6.74802203       4.71292062
Ti       2.93602701       6.74831456       4.70995570
Ti       2.93603338       2.93595307       5.32365473
Ti       0.00000201       2.93760159       5.32050119
Ti       4.40267622       5.06089660       6.48462829
Ti       1.46935491       5.06091117       6.48462529
Ti       4.40310109       0.98758359       6.94971170
Ti       1.46897562       0.98758225       6.94971783
Ti       2.93602873       3.16027909       8.14464901
Ti       0.00003274       3.15777055       8.14333607
Ti       2.93603213       6.08350561       8.74872216
Ti       0.00000516       6.08381967       8.74547682
Ti       4.40233801       1.36927535       9.91359623
Ti       1.46970426       1.36929455       9.91359629
Ti       4.40188922       4.18185480      10.41940020
Ti       1.47016225       4.18183021      10.41941935
Ti       2.93600517       6.36266809      11.58799792
Ti       0.00000574       6.35703905      11.57892890
Ti       2.93601242       2.39741665      12.19682861
Ti       0.00001136       2.39921553      12.17781206
Ti       1.46905452       4.58021166      13.39951624
Ti       4.40293560       4.58022149      13.39951479
Ti       4.39920646       0.48381482      13.83486091
Ti       1.47279444       0.48381024      13.83484947
Ti      -0.00000829       2.62319445      14.97834611
Ti       2.93601009       2.63126936      15.01885343
Ti       5.87199136       5.73361837      15.63358747
Ti       2.93598952       5.73590946      15.61793687
Ti       4.45051684       3.75904991      17.07093156
Ti       1.42147308       3.75904254      17.07094301
Ti       4.42187220       0.99563250      17.02882251
Ti       1.45014272       0.99563075      17.02882020
Ti       0.00000420       5.72340465      18.42579326
Ti       2.93599176       5.79496945      18.41012750
Ti       2.93598318       2.78371644      19.13804990
Cu       5.87199431       2.73982492      19.07179529
Ti       4.44050532       0.63175731      20.12125702
Ti       1.43150729       0.63178561      20.12121755
Ti       1.49603242       4.65548989      20.64125069
Ti       4.37597719       4.65549191      20.64129059
Ti       2.93600213       2.50857938      21.90800902
Ti       0.00001159       2.48731167      21.80430684
Ti       2.93602553       6.47949210      22.37771221
Ti       0.00000388       6.54548238      22.34676300
Ti       4.42755540       4.35318955      23.58948228
Ti       1.44446089       4.35319207      23.58948220
Ti       4.43159512       1.50857197      24.08977215
Ti       1.44040396       1.50858606      24.08977949
Ti       2.93599278       6.27570989      25.23285401
Ti       0.00001611       6.26170020      25.23210688
Ti       0.00001226       3.28087365      25.84778242
Ti       2.93600781       3.26941165      25.81663150
Ti       1.46850274       1.13801285      27.12610038
Ti       4.40351743       1.13801634      27.12610775
