64
Lattice="5.872 0.0 0.0 0.0 6.890708 0.0 0.0 0.0 27.394398" Properties=species:S:1:pos:R:3:forces:R:3 job_name=T1g-Zr-Zr-34-d-1.29 GB_type=T1g element=Zr system=Zr-34-d-1.29 distance=1.29 energy=-495.6738602 stress_kbar_3x3="_JSON [[-2.75999001, 0.00030501, -0.00062455], [0.00030503, -4.38437564, -0.25721607], [-0.00062455, -0.25721605, -8.8560896]]" pbc="T T T"
Ti       4.40213922       5.21166712       0.00420613      -0.00021772      -0.00323078       0.00285698
Ti       1.46989128       5.21164976       0.00413648       0.00024658      -0.00312446       0.00323520
Ti       5.87198947       3.18972521       1.28610937      -0.00005978      -0.00057480      -0.00044589
Ti       2.93602873       3.18805392       1.28367642       0.00005428      -0.00102704      -0.00174246
Ti       0.00004164       6.63531405       1.89814049      -0.00016932      -0.00063577      -0.00130600
Ti       2.93595002       6.63450683       1.89824568       0.00006870       0.00118316       0.00317584
Ti       4.40525010       1.76611405       3.17989481       0.00016238      -0.00197812      -0.00335527
Ti       1.46673998       1.76609256       3.17985203      -0.00025463      -0.00150044      -0.00314188
Ti       1.46739750       4.59855996       3.39342920      -0.00009926      -0.00093302      -0.00315421
Ti       4.40455961       4.59853742       3.39342513       0.00008472      -0.00065102      -0.00329193
Ti       5.87198083       6.72410427       4.70099586       0.00003657       0.00091148      -0.00373207
Ti       2.93594437       6.72101917       4.70274776       0.00012550       0.00370930      -0.00477199
Ti       2.93598289       2.87941078       5.30113944      -0.00013912      -0.00234643      -0.00615944
Ti       5.87193992       2.87870345       5.30889192       0.00019843      -0.00024832      -0.00388914
Ti       4.40786408       5.00488568       6.46017943       0.00069264       0.00125751      -0.00315040
Ti       1.46404516       5.00487336       6.46024023      -0.00069839       0.00111999      -0.00351146
Ti       4.40732849       0.93418086       6.93408833      -0.00062175      -0.00069204      -0.00335595
Ti       1.46461633       0.93411621       6.93410668       0.00051735      -0.00020485      -0.00336497
Ti       2.93595922       3.08917249       8.10522866       0.00009479       0.00157937      -0.00048951
Ti       5.87197108       3.09373740       8.11929191       0.00004457       0.00106215      -0.00728202
Ti       2.93597661       6.02755706       8.69304590      -0.00007416       0.00386138       0.00033993
Ti       5.87194844       6.02567099       8.72143794       0.00012760      -0.00024853      -0.00967239
Ti       4.39945192       1.29858312       9.89374915      -0.00395861       0.00132874      -0.00348267
Ti       1.47256342       1.29859380       9.89375043       0.00389636       0.00130938      -0.00338589
Ti       4.40353801       4.10695569      10.35996246      -0.00463595      -0.00106498      -0.00238297
Ti       1.46843175       4.10695525      10.35997786       0.00468173      -0.00106457      -0.00251080
Ti       2.93602386       6.24657124      11.47762505      -0.00002293       0.00421089      -0.00518655
Ti       0.00002752       6.23840762      11.52633310       0.00000456       0.00438183      -0.00395490
Ti       2.93601017       2.39752572      12.14882889       0.00000195      -0.00243027      -0.00208586
Ti       0.00002588       2.39610158      12.09422128      -0.00001730      -0.00410620       0.00709902
Ti       1.49639897       4.55413496      13.42625202      -0.00392109      -0.00369428      -0.00022828
Ti       4.37566830       4.55410955      13.42622980       0.00403093      -0.00360902      -0.00017154
Ti       4.34053977       0.43272400      13.62631587       0.00543800       0.01117530       0.00088213
Ti       1.53155361       0.43273812      13.62631043      -0.00545536       0.01105418       0.00084964
Zr       0.00000732       2.47449014      15.02829076       0.00010238      -0.00177033       0.00263165
Ti       2.93604726       2.47697789      15.00517797      -0.00005168      -0.00012570       0.00487405
Ti       0.00010316       5.91297991      15.56037803      -0.00016446       0.00110396       0.00424993
Ti       2.93610666       5.93705893      15.62861287      -0.00008573      -0.00217353       0.00397443
Ti       4.32788027       3.92672517      16.97416900       0.00386191      -0.00132458      -0.00376132
Ti       1.54419698       3.92669537      16.97414565      -0.00373051      -0.00106146      -0.00378542
Ti       4.36026554       1.05170878      17.17761608       0.00619852       0.00215319      -0.00368491
Ti       1.51187479       1.05172211      17.17764001      -0.00612777       0.00197897      -0.00390006
Ti       0.00005562       5.85014100      18.43004932      -0.00013085      -0.00052272       0.00715763
Ti       2.93602216       5.83612453      18.48173779      -0.00001645      -0.00442845      -0.00472244
Ti       2.93604352       2.77651899      19.10243094      -0.00001962       0.00514938      -0.00074998
Ti       0.00005095       2.79419043      19.02854012      -0.00002584      -0.00075078       0.00467048
Ti       4.42066844       0.66393635      20.22177085      -0.00081257      -0.00009551       0.00242278
Ti       1.45132940       0.66391305      20.22172317       0.00093943      -0.00002044       0.00276843
Ti       1.46085385       4.73179220      20.68679520       0.00148481      -0.00129340       0.00492016
Ti       4.41120982       4.73178350      20.68676717      -0.00157989      -0.00116362       0.00484580
Ti       2.93600813       2.58221456      21.89498123       0.00000375      -0.00084440       0.00184876
Ti       0.00001294       2.57698813      21.84975048       0.00007599       0.00066794       0.00496258
Ti       2.93601383       6.52899594      22.45806223      -0.00009880       0.00025711       0.00480706
Ti       5.87197771       6.54077784      22.46585990       0.00021543      -0.00078619       0.00219019
Ti       4.40847318       4.37897761      23.64433349      -0.00089255      -0.00066465       0.00231999
Ti       1.46357081       4.37896904      23.64439712       0.00070501      -0.00056919       0.00199559
Ti       4.41115028       1.55764881      24.11888447      -0.00161233      -0.00097618       0.00319915
Ti       1.46087357       1.55765198      24.11890556       0.00162824      -0.00108946       0.00308047
Ti       2.93602678       6.32240921      25.26996032       0.00007900      -0.00257418       0.00492204
Ti       0.00004896       6.32190039      25.27426086      -0.00013106      -0.00342394       0.00520337
Ti       0.00000440       3.27898747      25.87798988      -0.00012971       0.00033568       0.00402756
Ti       2.93598786       3.27648246      25.87045227       0.00013787       0.00165588       0.00523517
Ti       1.46845561       1.15300692      27.18426841      -0.00001617      -0.00120030       0.00248625
Ti       4.40354797       1.15302747      27.18424794       0.00003136      -0.00122284       0.00257831
