64
Lattice="5.872 0.0 0.0 0.0 6.890708 0.0 0.0 0.0 27.394398" Properties=species:S:1:pos:R:3:forces:R:3 job_name=T1g-Zn-Zn-42-d-4.72 GB_type=T1g element=Zn system=Zn-42-d-4.72 distance=4.72 energy=-488.77725567 stress_kbar_3x3="_JSON [[-12.17232021, 8.84e-06, -3.195e-05], [8.82e-06, -14.24178357, -0.108138], [-3.194e-05, -0.108138, -19.08845716]]" pbc="T T T"
Ti       4.39739826       5.22194125      27.38308111      -0.00182194      -0.00222365      -0.00422344
Ti       1.47460742       5.22192556      27.38309630       0.00178316      -0.00227021      -0.00417026
Ti       5.87194538       3.19467247       1.28212929       0.00013999       0.00278965      -0.00536499
Ti       2.93602540       3.19475058       1.28276952      -0.00003393       0.00247860      -0.00759942
Ti       0.00003018       6.63506440       1.89960542      -0.00000036      -0.00116509       0.00232147
Ti       2.93595738       6.63674399       1.90391047       0.00001147      -0.00123218       0.00363537
Ti       4.40762591       1.77002881       3.18873427       0.00108739       0.00020862       0.00119037
Ti       1.46432822       1.77005281       3.18870627      -0.00096167       0.00022480       0.00117355
Ti       1.46824003       4.59687746       3.40561804      -0.00059812       0.00291064       0.00269332
Ti       4.40377353       4.59687390       3.40560932       0.00055902       0.00301446       0.00274495
Ti       0.00000486       6.72620876       4.71769362      -0.00007650       0.00097663       0.00156375
Ti       2.93596306       6.72729878       4.71945105       0.00002468       0.00103879       0.00197072
Ti       2.93598789       2.87562121       5.33007894       0.00000131       0.00230539       0.00209940
Ti       5.87196169       2.87610148       5.32683403       0.00001884       0.00108948       0.00271973
Ti       4.40153900       5.00769495       6.48934817      -0.00047205      -0.00183610      -0.00139844
Ti       1.47040559       5.00766892       6.48937610       0.00049906      -0.00175707      -0.00140760
Ti       4.40230467       0.93443650       6.96560126      -0.00043305       0.00197117      -0.00288445
Ti       1.46967927       0.93443454       6.96561006       0.00036330       0.00188642      -0.00283497
Ti       2.93597748       3.09785678       8.15408127       0.00004637       0.00437036       0.00120182
Ti      -0.00002323       3.09500581       8.14714345      -0.00001495       0.00465095      -0.00180329
Ti       2.93597742       6.02409862       8.76099014      -0.00000378      -0.00153243       0.00388828
Ti       5.87198499       6.02699392       8.74069371       0.00004177      -0.00212739      -0.00003886
Ti       4.40673193       1.29839189       9.93243831       0.00006044       0.00241650       0.00166132
Ti       1.46531325       1.29838741       9.93245967      -0.00008477       0.00237825       0.00154889
Ti       4.40236472       4.11746672      10.41246290      -0.00147670       0.00694585       0.00467981
Ti       1.46967157       4.11747571      10.41246187       0.00144280       0.00700490       0.00465278
Ti       2.93605166       6.25273827      11.59393715      -0.00005693       0.00371184       0.00296519
Ti       0.00001692       6.25683125      11.55615991       0.00006312       0.00412367       0.00300904
Ti       2.93602676       2.39283337      12.15992274       0.00011104       0.00111786      -0.00314694
Ti       0.00003440       2.38957772      12.19356924      -0.00011977       0.00379984       0.00037359
Ti       1.44342364       4.51632655      13.46978141       0.00044757       0.00353207      -0.00682963
Ti       4.42866399       4.51623569      13.46976327      -0.00040118       0.00355043      -0.00679048
Ti       4.46006615       0.47390989      13.72080515       0.00205789      -0.00459926       0.01176876
Ti       1.41204169       0.47391860      13.72078885      -0.00200868      -0.00479422       0.01195314
Ti       0.00005846       2.52153579      15.05130248       0.00002233       0.00889176      -0.00109229
Ti       2.93609747       2.48002311      15.00349698      -0.00011836       0.01033190       0.00256822
Ti       0.00011345       5.88539098      15.63230071       0.00007068      -0.01518332      -0.00855090
Ti       2.93606185       5.89891436      15.52511255      -0.00013353      -0.01449927       0.01348197
Ti       4.35384207       3.92237181      16.91733685      -0.01258739       0.00089078       0.00445968
Ti       1.51825580       3.92231813      16.91734262       0.01257819       0.00092578       0.00436561
Ti       4.40456538       1.03112333      17.09354269      -0.00016034      -0.00471520      -0.01180160
Ti       1.46757260       1.03110588      17.09350510       0.00024117      -0.00472153      -0.01173322
Zn       0.00001768       5.80559525      18.43895287       0.00003099      -0.00210582      -0.00115605
Ti       2.93602095       5.78378896      18.36250805       0.00005392      -0.01124435      -0.01568392
Ti       2.93606530       2.73253406      19.03007087       0.00001613       0.00134051       0.00022257
Ti       0.00002405       2.82221811      19.01848226      -0.00003556      -0.01336200       0.00417417
Ti       4.44293197       0.63899288      20.16844749       0.00272922       0.00186920       0.00447301
Ti       1.42904234       0.63898509      20.16841605      -0.00273024       0.00182595       0.00451579
Ti       1.46241342       4.73857900      20.64903811      -0.00071754      -0.00474757       0.00057729
Ti       4.40961779       4.73856686      20.64901047       0.00069317      -0.00479621       0.00064846
Ti       2.93597621       2.58114078      21.82488705       0.00004316      -0.00053884       0.00216826
Ti      -0.00001108       2.59380811      21.79650510      -0.00008466      -0.00625291      -0.00559290
Ti       2.93599166       6.54959889      22.41780665      -0.00002338      -0.00346891       0.00122735
Ti       5.87198225       6.55664340      22.46054717       0.00002770      -0.00162110       0.00064000
Ti       4.40207361       4.37714403      23.59787526       0.00065697       0.00231003       0.00240539
Ti       1.46987724       4.37713659      23.59787354      -0.00066599       0.00226167       0.00239022
Ti       4.40685064       1.57394395      24.09071780      -0.00042734      -0.00209260       0.00068338
Ti       1.46510017       1.57393248      24.09066023       0.00046163      -0.00203834       0.00079449
Ti       2.93599416       6.32272596      25.23367295       0.00002730       0.00190899      -0.00324505
Ti       0.00000590       6.32649949      25.25580097      -0.00009642      -0.00006458      -0.00431778
Ti       5.87197031       3.28969048      25.85901811       0.00001153       0.00214603      -0.00199781
Ti       2.93602149       3.29009904      25.85598553      -0.00004466       0.00374884       0.00075605
Ti       1.47020541       1.15750414      27.17406309       0.00021989       0.00402142      -0.00333605
Ti       4.40180625       1.15749389      27.17406935      -0.00025341       0.00402013      -0.00336678
