64
Lattice="5.872 0.0 0.0 0.0 6.890708 0.0 0.0 0.0 27.394398" Properties=species:S:1:pos:R:3:forces:R:3 job_name=T1g-Zr-Zr-41-d-3.41 GB_type=T1g element=Zr system=Zr-41-d-3.41 distance=3.41 energy=-495.8781355 stress_kbar_3x3="_JSON [[-2.51996717, 0.00643195, -0.00040924], [0.00643195, -3.1613563, -0.11051244], [-0.00040926, -0.11051241, -9.48692363]]" pbc="T T T"
Ti       4.40419573       5.15517855       0.11741340      -0.00032618      -0.00475281      -0.00244503
Ti       1.46805350       5.15630252       0.11855872       0.00043163      -0.00352647       0.00162633
Ti       0.00069372       3.06639411       1.28956733      -0.00034198      -0.00245746       0.00249871
Ti       2.93558997       3.06639859       1.28957909       0.00045571      -0.00172471       0.00017043
Ti       0.00023905       6.77299792       1.89878703       0.00051559      -0.00840763       0.00254704
Ti       2.93597877       6.77299065       1.89875734      -0.00034706      -0.00858608       0.00211004
Ti       4.40394407       1.84432933       3.30258274       0.00033817      -0.00259290       0.00158419
Ti       1.46835704       1.84409235       3.30329382      -0.00032820      -0.00035000      -0.00038451
Ti       1.46813168       4.68635471       3.30717499       0.00007424      -0.00929551       0.00218743
Ti       4.40407678       4.68635143       3.30728032       0.00011467      -0.00873532       0.00231039
Ti       0.00000708       6.77232441       4.71190263       0.00125738      -0.00444172       0.00173241
Ti       2.93626009       6.77231588       4.71185003      -0.00109949      -0.00462650       0.00246205
Ti       2.93632054       3.05535429       5.32255810      -0.00180896       0.00108117      -0.00806976
Ti       5.87195977       3.05529933       5.32235337       0.00188844       0.00145557      -0.00730553
Ti       4.40417148       5.14588076       6.49081862       0.00000224      -0.00126546      -0.00103838
Ti       1.46812426       5.14686616       6.48946384      -0.00019820      -0.00163557      -0.00152709
Ti       4.40412968       1.07498251       6.90773816      -0.00003211      -0.00132258      -0.00104623
Ti       1.46814060       1.07455514       6.91205139       0.00004170      -0.00028786      -0.00190329
Ti       2.93499413       3.22832561       8.12095234       0.00038941       0.00168541       0.00390295
Ti       0.00122248       3.22831272       8.12086785      -0.00037059       0.00193654       0.00325546
Ti       2.93403617       6.16653530       8.71831883       0.00241611       0.00231432       0.00153302
Ti       0.00219015       6.16653501       8.71836143      -0.00241146       0.00139849       0.00080102
Ti       4.40410732       1.43109129       9.86347395      -0.00073963       0.00416279       0.00298400
Ti       1.46794920       1.43280969       9.87409093       0.00078076       0.00933660       0.00126005
Ti       4.40413893       4.24950452      10.37603562      -0.00084405       0.00238664      -0.00074563
Ti       1.46796685       4.24783164      10.38027685       0.00103981      -0.00314243       0.00183505
Ti       2.94277538       6.41335598      11.53857625       0.00160662      -0.00040142      -0.00100232
Ti       5.86525642       6.41325986      11.53848365      -0.00169902       0.00076180      -0.00010554
Ti       2.93925259       2.43958623      12.12850386      -0.00174516       0.00314256      -0.00162148
Ti       5.86865973       2.43962296      12.12822553       0.00183721       0.00235046       0.00153253
Ti       1.46782227       4.61062669      13.33210707       0.00031700      -0.00359754      -0.00030194
Ti       4.40386904       4.61025988      13.31111814      -0.00029407      -0.00421467       0.00063426
Ti       4.40398693       0.52419819      13.81308046       0.00006080       0.00082081      -0.00692581
Ti       1.46798501       0.52629445      13.76255017      -0.00010969       0.00471218       0.00015665
Ti       0.00140967       2.66370771      14.91826198       0.00031690      -0.00199126      -0.00415085
Ti       2.93431244       2.66365231      14.91822469      -0.00009618      -0.00174603      -0.00134357
Ti       5.82221802       5.70055575      15.54466088      -0.00075153       0.00552296      -0.00022617
Ti       2.98536433       5.70053016      15.54470517       0.00073649       0.00604349      -0.00052067
Ti       4.40414617       3.74254211      17.00452297      -0.00034178       0.00544270       0.00128185
Ti       1.46785234       3.84938036      17.00548457       0.00007246       0.00118012      -0.00438180
Ti       4.40329844       0.91680439      17.00485728      -0.00046602       0.00584466      -0.00084393
Zr       1.46720867       0.94119116      17.00408251      -0.00059318       0.00871786       0.00157696
Ti       5.82147746       5.70220837      18.46403455       0.00020075       0.00450555      -0.00298477
Ti       2.98610293       5.70224418      18.46396714      -0.00028747       0.00453384      -0.00248465
Ti       2.93426974       2.66373552      19.09095045       0.00335929       0.00196019      -0.00175983
Ti       0.00154003       2.66381185      19.09102214      -0.00300613       0.00211516      -0.00053000
Ti       4.40402744       0.52547847      20.19596165      -0.00017814       0.00763018       0.00131487
Ti       1.46796139       0.52859018      20.24497518       0.00023650       0.00606401       0.00368729
Ti       1.46785903       4.61337530      20.67512361       0.00044257      -0.00056523       0.00343186
Ti       4.40393467       4.61243177      20.69704140      -0.00057658       0.00061027      -0.00194255
Ti       2.93891894       2.44493215      21.87892207      -0.00243102       0.00016825      -0.00028265
Ti       5.86912117       2.44508765      21.87906053       0.00240730      -0.00108239      -0.00096641
Ti       2.94300491       6.41908905      22.46878037      -0.00346251       0.00093096      -0.00006468
Ti       5.86505124       6.41902242      22.46872101       0.00361108       0.00170643       0.00092619
Ti       4.40407385       4.25788154      23.63063575      -0.00034214      -0.00240930       0.00281703
Ti       1.46806669       4.25579358      23.62638274       0.00026750      -0.00036948      -0.00359713
Ti       4.40403980       1.44129484      24.14186284       0.00038020      -0.00343271       0.00638616
Ti       1.46811344       1.44266025      24.13302098      -0.00011749       0.00247505      -0.00448841
Ti       2.93407511       6.17812974      25.28751173       0.00346554      -0.00242647      -0.00000155
Ti       0.00220923       6.17805980      25.28758587      -0.00369493      -0.00158784      -0.00106415
Ti       0.00135470       3.23796288      25.88480855      -0.00252611      -0.00283320       0.00073842
Ti       2.93478810       3.23799222      25.88458297       0.00262886      -0.00260534       0.00259996
Ti       1.46808397       1.08525259      27.09666125       0.00021244      -0.00518141       0.00387033
Ti       4.40417563       1.08533246      27.10109856      -0.00033831      -0.00140172       0.00030136
