64
Lattice="5.872 0.0 0.0 0.0 6.890708 0.0 0.0 0.0 27.394398" Properties=species:S:1:pos:R:3:forces:R:3 job_name=T1g-V-V-40-d-3.41 GB_type=T1g element=V system=V-40-d-3.41 distance=3.41 energy=-495.72286874 stress_kbar_3x3="_JSON [[-12.37058253, -0.00144558, -9.549e-05], [-0.00144554, -14.29857678, 2.46316404], [-9.551e-05, 2.46316401, -20.10245493]]" pbc="T T T"
Ti       4.40397670       5.20717258      27.38168621       0.00012676       0.00688360      -0.00587986
Ti       1.46793473       5.20788192      27.38264499       0.00018173      -0.00073179      -0.00870674
Ti       5.86841770       3.17990498       1.27811655       0.00193040       0.00435409       0.01127661
Ti       2.93957820       3.17990500       1.27811376      -0.00200154       0.00437494       0.01130835
Ti       0.00189291       6.62495820       1.90102260       0.00138690      -0.00505202      -0.00113833
Ti       2.93405198       6.62496190       1.90098994      -0.00143790      -0.00511406      -0.00108858
Ti       4.40398113       1.75596562       3.19356265       0.00005704       0.00580660      -0.00805547
Ti       1.46800042       1.75832398       3.19360507      -0.00000978       0.00451390      -0.00340545
Ti       1.46798504       4.58296864       3.40525017       0.00000548      -0.00796128       0.00197124
Ti       4.40398644       4.58224559       3.40390845       0.00001375      -0.00709322       0.00971918
Ti       0.00096542       6.70988112       4.71973232      -0.00265957       0.00047658       0.00159542
Ti       2.93506627       6.70986863       4.71970472       0.00261155       0.00050025       0.00162514
Ti       2.93751328       2.86172214       5.33574802       0.00079697      -0.00229680      -0.00678910
Ti       5.87048450       2.86173173       5.33578166      -0.00073174      -0.00231279      -0.00710228
Ti       4.40404093       4.98983572       6.49457485      -0.00008868      -0.00369304       0.00066694
Ti       1.46804128       4.98943967       6.49583130      -0.00025340      -0.00816095       0.00062664
Ti       4.40398506       0.91200720       6.97122213       0.00010737      -0.00514973      -0.00346700
Ti       1.46799800       0.91261557       6.96663184      -0.00005638      -0.00457780       0.00496753
Ti       2.93634585       3.06583578       8.15551945      -0.00518418      -0.00897086       0.00080718
Ti      -0.00031177       3.06587501       8.15550990       0.00525462      -0.00918174       0.00112232
Ti       2.93705846       6.00750483       8.75769885       0.00201190      -0.00894681       0.00165534
Ti       5.87097143       6.00748616       8.75771753      -0.00186226      -0.00874167       0.00175859
Ti       4.40404246       1.26578576       9.96136619      -0.00000489      -0.00878034       0.00090521
Ti       1.46805888       1.26498934       9.95202834      -0.00022998      -0.00500441       0.00207360
Ti       4.40399387       4.07710818      10.41100356       0.00023582      -0.00260325      -0.00476305
Ti       1.46804923       4.07516870      10.40664769      -0.00044257      -0.01129754      -0.00038123
Ti       2.93805148       6.18364497      11.57173383       0.00944422      -0.00080294       0.00453183
Ti       5.86996038       6.18365772      11.57179627      -0.00928125      -0.00091210       0.00434204
Ti       2.92400879       2.39495428      12.18643466       0.00432609      -0.00174609       0.00553480
Ti       0.01202795       2.39496564      12.18642340      -0.00413324      -0.00177020       0.00528790
Ti       1.46805710       4.48553338      13.56638372       0.00011527       0.00051790      -0.00531325
Ti       4.40405798       4.49012083      13.57532528      -0.00013243      -0.00138036      -0.00163147
Ti       4.40395286       0.44285912      13.62986702      -0.00002586       0.01145364       0.00444192
Ti       1.46808449       0.43283529      13.65819109       0.00002702       0.00283891      -0.00208492
Ti       0.00018357       2.39403736      15.04078498      -0.00200189      -0.00334222      -0.01472699
Ti       2.93585545       2.39409104      15.04084068       0.00206798      -0.00331582      -0.01487746
Ti       5.80920617       6.07139972      15.63206344       0.00093675       0.00325790       0.00918252
Ti       2.99890813       6.07138043      15.63215747      -0.00088393       0.00323502       0.00891177
Ti       4.40403195       3.91670800      16.81732351       0.00004991       0.01503079      -0.00755202
Ti       1.46798384       4.01208812      16.82993255      -0.00000179      -0.00326023      -0.00151686
V        4.40420513       1.11358337      17.14009264      -0.00001734      -0.00701590       0.00685704
Ti       1.46800913       1.14439996      17.14368234      -0.00001073       0.00614889      -0.00073862
Ti       5.83444715       5.90298320      18.40923472      -0.00804712      -0.00400976      -0.00792519
Ti       2.97362648       5.90303874      18.40925685       0.00793706      -0.00398270      -0.00774417
Ti       2.93200382       2.81609723      18.96408977      -0.00473759       0.01125481       0.01401435
Ti       0.00406440       2.81611155      18.96410998       0.00461092       0.01132232       0.01396080
Ti       4.40399697       0.69736261      20.15649713       0.00003593       0.00251115      -0.00671986
Ti       1.46797085       0.69795616      20.19148092       0.00008066       0.01729659      -0.00911805
Ti       1.46801953       4.74728082      20.61825002      -0.00005608       0.00357539       0.00106500
Ti       4.40397988       4.75102155      20.63169159       0.00018782       0.00902133       0.01412717
Ti       2.93806499       2.59860499      21.81453433      -0.00085840       0.00133152      -0.00085621
Ti       5.86992680       2.59857544      21.81449577       0.00079775       0.00159520      -0.00053559
Ti       2.94079459       6.54173391      22.41910425       0.00347581       0.01111811       0.00407255
Ti       5.86716394       6.54172645      22.41912222      -0.00348594       0.01108241       0.00379902
Ti       4.40397748       4.38008313      23.60873006       0.00000631       0.00731355      -0.00254724
Ti       1.46796495       4.38158611      23.60523432       0.00005532      -0.00815211       0.00654944
Ti       4.40399559       1.56193310      24.08138273      -0.00002800       0.00059159      -0.00214083
Ti       1.46800519       1.56447368      24.07252753      -0.00003337       0.00077666       0.00352719
Ti       2.93316676       6.32329332      25.24336697       0.00264659       0.00466388      -0.00579064
Ti       0.00285609       6.32331284      25.24333015      -0.00282579       0.00456464      -0.00556710
Ti       0.00041880       3.27635719      25.85365892      -0.00154628      -0.00862970      -0.00845439
Ti       2.93551782       3.27633901      25.85367396       0.00156512      -0.00854524      -0.00861838
Ti       1.46799909       1.14450561      27.16701864      -0.00006758       0.00292071       0.00711403
Ti       4.40399192       1.14406960      27.17361876       0.00005063       0.00220257      -0.00416233
