64
Lattice="5.872 0.0 0.0 0.0 6.890708 0.0 0.0 0.0 27.394398" Properties=species:S:1:pos:R:3:forces:R:3 job_name=T1g-Al-Al-46-d-6.48 GB_type=T1g element=Al system=Al-46-d-6.48 distance=6.48 energy=-492.02570289 stress_kbar_3x3="_JSON [[-11.42047445, -0.00105402, -0.00021092], [-0.001054, -10.0871246, 0.22766182], [-0.00021091, 0.22766179, -19.41039947]]" pbc="T T T"
Ti       4.40388948       5.22092809      27.38568400       0.00020537      -0.00189487       0.00255042
Ti       1.46812686       5.21355845      27.38759710      -0.00040283      -0.00435187      -0.00361002
Ti       5.86995021       3.19148380       1.28005202      -0.00212294      -0.00190425      -0.00578217
Ti       2.93806577       3.19142073       1.28012962       0.00214036      -0.00192978      -0.00571886
Ti       0.00235510       6.63830724       1.89516416      -0.00227023       0.01014032       0.00055994
Ti       2.93360903       6.63836177       1.89523555       0.00234977       0.01026787       0.00100361
Ti       4.40408429       1.76992234       3.19028054      -0.00014071      -0.00261084      -0.01103702
Ti       1.46791066       1.76813586       3.18964923       0.00002926      -0.00215029      -0.00822098
Ti       1.46794185       4.59712944       3.40216312       0.00003025       0.00494203      -0.00999504
Ti       4.40396980       4.59740791       3.40196342       0.00013231       0.00339324      -0.01069304
Ti       5.87082866       6.72395972       4.71494317       0.00067512       0.00677769      -0.00910621
Ti       2.93709578       6.72394558       4.71507026      -0.00067125       0.00692062      -0.00968804
Ti       2.93629563       2.87910935       5.32504610       0.00057463      -0.00257484      -0.00419550
Ti       5.87165092       2.87908434       5.32507166      -0.00036382      -0.00225502      -0.00394677
Ti       4.40394877       5.00708803       6.48461328       0.00018833      -0.00088758       0.00161600
Ti       1.46796168       5.00544938       6.48515551      -0.00010969      -0.00067877       0.00195855
Ti       4.40395411       0.93362611       6.96115771       0.00010845       0.00182378       0.00115630
Ti       1.46797107       0.93290626       6.95948376      -0.00019446       0.00209534       0.00255298
Ti       2.93620318       3.09194671       8.14393694      -0.00019245       0.00059827       0.00419598
Ti       5.87169713       3.09193686       8.14398303       0.00043913       0.00059043       0.00408193
Ti       2.93664810       6.02514416       8.74525964      -0.00090931       0.00204018       0.00476850
Ti       5.87127328       6.02516166       8.74531924       0.00128580       0.00189301       0.00431340
Ti       4.40400661       1.29390065       9.92707667      -0.00010762       0.00055458       0.00468067
Ti       1.46800605       1.29280479       9.92590899       0.00008635       0.00030809       0.00643723
Ti       4.40399461       4.11254273      10.40617993      -0.00013332       0.00637088       0.00121614
Ti       1.46799775       4.11071681      10.40275257       0.00009200       0.00683842       0.00218340
Ti       2.93338547       6.24061860      11.56458895       0.00024800       0.01339846       0.00696595
Ti       0.00269398       6.24059362      11.56457106      -0.00023658       0.01361744       0.00734643
Ti       2.93777845       2.39702849      12.17611854       0.00394533      -0.00608298       0.01058834
Ti       5.87032523       2.39704757      12.17605795      -0.00399841      -0.00625754       0.01111490
Ti       1.46808933       4.52249109      13.48280852       0.00006396       0.00483576       0.00177975
Ti       4.40410372       4.52495492      13.49355941      -0.00018237       0.00030876      -0.00219224
Ti       4.40402289       0.46084430      13.70799287       0.00008120       0.01262979       0.00339665
Ti       1.46807834       0.46727146      13.70837300      -0.00015956       0.01617540       0.00189373
Ti       5.86017351       2.48936637      14.99180645      -0.00173274      -0.00193890      -0.00766899
Ti       2.94793963       2.48937578      14.99177936       0.00174778      -0.00175351      -0.00707259
Ti       0.00842754       5.94105965      15.61618585       0.00804323      -0.00705653       0.01417748
Ti       2.92773601       5.94103985      15.61622507      -0.00837110      -0.00704636       0.01392912
Ti       4.40409498       3.90932116      16.93261989      -0.00007200       0.00772931       0.00007730
Ti       1.46804440       3.91078703      16.91042368       0.00008537       0.01774839       0.00798277
Ti       4.40405372       1.08499840      17.13219113      -0.00008316      -0.01341950       0.00126462
Ti       1.46804144       1.08591635      17.06503734       0.00007582      -0.01363678       0.00032138
Ti       0.01849462       5.82892624      18.45218011       0.00550008      -0.00257181      -0.00925682
Ti       2.91759995       5.82896384      18.45219958      -0.00574398      -0.00293473      -0.00944529
Ti       2.95913957       2.78118945      19.02129587      -0.00278181      -0.01139396       0.00308730
Ti       5.84904518       2.78119802      19.02132058       0.00232632      -0.01156623       0.00304640
Al       4.40394246       0.66579181      20.14977288       0.00090784      -0.00355643       0.01280128
Ti       1.46805015       0.61643557      20.17057932      -0.00040626       0.00269085       0.00140136
Ti       1.46801472       4.66086356      20.66714770      -0.00002617       0.00878275      -0.01128473
Ti       4.40401757       4.77046469      20.66306206       0.00016648      -0.00929723      -0.01272660
Ti       2.97225911       2.53870317      21.83210749      -0.00373383      -0.00808397      -0.01037563
Ti       5.83571357       2.53870652      21.83215534       0.00366609      -0.00820368      -0.01057204
Ti       2.95374109       6.53937212      22.40561512      -0.00264287      -0.00072316      -0.00533303
Ti       5.85425689       6.53938299      22.40575508       0.00257548      -0.00056391      -0.00588067
Ti       4.40395748       4.39712232      23.58307964       0.00012397      -0.00835029       0.00793983
Ti       1.46798998       4.38263578      23.61657816      -0.00003067      -0.00839395       0.00284712
Ti       4.40400240       1.57886556      24.13310115      -0.00005250      -0.00503068      -0.00461049
Ti       1.46796712       1.55229162      24.08290954       0.00007349      -0.00860096       0.00918232
Ti       2.93250673       6.31949888      25.23725656      -0.00439132      -0.00121546       0.00516235
Ti       0.00347882       6.31949484      25.23738148       0.00441786      -0.00122901       0.00505700
Ti       5.86574128       3.29065000      25.85305932       0.00211521       0.00080423       0.00399689
Ti       2.94223135       3.29067455      25.85313068      -0.00204743       0.00078904       0.00363626
Ti       1.46806706       1.15505030      27.16254197      -0.00013619       0.00454835      -0.00289273
Ti       4.40400377       1.16087415      27.17161533      -0.00005305       0.00053236      -0.00096609
