64
Lattice="5.872 0.0 0.0 0.0 6.890708 0.0 0.0 0.0 27.394398" Properties=species:S:1:pos:R:3:forces:R:3 job_name=T1g-Al-Al-39-d-3.19 GB_type=T1g element=Al system=Al-39-d-3.19 distance=3.19 energy=-492.05088267 stress_kbar_3x3="_JSON [[-10.17000226, -9.976e-05, 0.00097506], [-9.98e-05, -10.12287104, 0.78248426], [0.00097502, 0.78248422, -19.87084053]]" pbc="T T T"
Ti       4.40392369       5.21189998      27.39327084       0.00017902       0.00487355       0.00581221
Ti       1.46805916       5.21478982      27.39040391      -0.00008201       0.00387772       0.00708711
Ti       0.00612785       3.18643927       1.28242542       0.00075510       0.00015350       0.00586799
Ti       2.92982342       3.18639536       1.28245662      -0.00076620       0.00027876       0.00579772
Ti       5.86984362       6.63733304       1.90079891      -0.00009054       0.00081603       0.00123787
Ti       2.93814171       6.63731187       1.90072769       0.00004950       0.00068868       0.00106947
Ti       4.40400583       1.76864832       3.19162539       0.00045097       0.00075356      -0.00381149
Ti       1.46788643       1.76778415       3.19174879      -0.00039001       0.00166390      -0.00349535
Ti       1.46797140       4.59720842       3.40386381      -0.00016683      -0.00190900      -0.00396570
Ti       4.40399155       4.59917157       3.40338485       0.00016039      -0.00128899      -0.00436123
Ti       5.87098921       6.72449323       4.72028405      -0.00064320       0.00029699       0.00207930
Ti       2.93690423       6.72446213       4.72037651       0.00064760       0.00011348       0.00210483
Ti       2.93391936       2.87856499       5.33058831      -0.00092216       0.00102257       0.00147121
Ti       0.00197321       2.87853303       5.33060280       0.00091515       0.00083137       0.00130906
Ti       4.40392176       5.00421657       6.48928329       0.00001021       0.00168925       0.00245074
Ti       1.46793808       5.00633480       6.48802633       0.00004898      -0.00055298       0.00271249
Ti       4.40399265       0.93470143       6.96846960       0.00002385      -0.00079822       0.00330551
Ti       1.46792137       0.93554823       6.96901016      -0.00007185       0.00141052       0.00351588
Ti       2.93587606       3.09224355       8.15379652      -0.00169980      -0.00501104       0.00180914
Ti       0.00006163       3.09220725       8.15380333       0.00172706      -0.00513816       0.00170248
Ti       2.93461153       6.02717980       8.75161473       0.00119048       0.00423380       0.00221588
Ti       0.00133897       6.02720159       8.75157055      -0.00120935       0.00448941       0.00210276
Ti       4.40401342       1.28656008       9.93446776      -0.00013256      -0.00105648       0.00324331
Ti       1.46798829       1.29327252       9.93460210       0.00016469       0.00169696       0.00336994
Ti       4.40398268       4.11665543      10.41063150      -0.00031107      -0.00103119       0.00414995
Ti       1.46801410       4.11500222      10.42328153       0.00017190      -0.00452370       0.00518158
Ti       2.92422635       6.23727736      11.57180775       0.00268715       0.00160611       0.00331939
Ti       0.01184954       6.23730292      11.57186360      -0.00265107       0.00177416       0.00349710
Ti       2.93957864       2.40977117      12.18503142      -0.00099313      -0.00436361      -0.00444272
Ti       5.86848874       2.40976746      12.18503157       0.00098620      -0.00453930      -0.00421380
Ti       1.46807860       4.52636065      13.50188830      -0.00000735       0.00352818      -0.00711181
Ti       4.40405541       4.51689192      13.48567717      -0.00016416       0.00673074      -0.00489582
Ti       4.40402601       0.45625700      13.70345062       0.00026524      -0.00852123      -0.00218946
Ti       1.46807423       0.48916569      13.73399798      -0.00010097      -0.00468022      -0.00224091
Ti       5.84105986       2.45036009      15.01805279       0.00305848      -0.01077914       0.00706054
Ti       2.96708435       2.45038081      15.01808611      -0.00326117      -0.01031688       0.00792680
Ti       0.01494060       5.92746764      15.59851318      -0.01160574       0.01109312       0.00268038
Ti       2.92119305       5.92746613      15.59856398       0.01147339       0.01049074       0.00316698
Ti       4.40403039       3.84389905      16.88793017      -0.00093272       0.00502695       0.01072688
Al       1.46811046       3.91523022      16.83750190       0.00113327      -0.00108814       0.00532467
Ti       4.40408826       1.00718545      17.11534662      -0.00026708      -0.00601390       0.00557623
Ti       1.46811768       1.11540271      17.11986920       0.00017109      -0.00295192       0.00134174
Ti       0.03119528       5.79784130      18.39701170      -0.00925672       0.00250085      -0.00880454
Ti       2.90488806       5.79781123      18.39698349       0.00927437       0.00210959      -0.00952102
Ti       2.91357598       2.81170874      18.98512952       0.00248061       0.00093653      -0.01639809
Ti       0.02250041       2.81170403      18.98513420      -0.00235260       0.00064865      -0.01566382
Ti       4.40404950       0.66463557      20.17391973       0.00018810      -0.00466650      -0.00974901
Ti       1.46799773       0.69520342      20.13470135      -0.00018781       0.00074048      -0.00566627
Ti       1.46799304       4.76402755      20.69797197      -0.00008995       0.00129495      -0.00307203
Ti       4.40406157       4.72808123      20.63506616       0.00009011       0.00506253      -0.00185874
Ti       2.93708549       2.57643936      21.82104916       0.00084614      -0.00170296       0.00264536
Ti       5.87092841       2.57647945      21.82105530      -0.00082929      -0.00186343       0.00248551
Ti       2.92854920       6.55076596      22.42523657       0.00130339       0.00246606       0.00699870
Ti       0.00750385       6.55075142      22.42521687      -0.00130275       0.00265205       0.00701384
Ti       4.40401735       4.38067935      23.60226526       0.00011276       0.00670186      -0.00230241
Ti       1.46801448       4.38612944      23.61496438      -0.00021172       0.00402575       0.00075913
Ti       4.40400400       1.55968621      24.08955212       0.00008310      -0.00698513      -0.00215361
Ti       1.46799782       1.56230398      24.09368824      -0.00004399      -0.00378954      -0.00165970
Ti       2.93805628       6.32269957      25.24919934       0.00094299       0.00133036      -0.00711366
Ti       5.86994013       6.32270703      25.24926973      -0.00074610       0.00135418      -0.00739017
Ti       5.87139692       3.28345380      25.85504149       0.00028476       0.00049622      -0.00659771
Ti       2.93664353       3.28346466      25.85511305      -0.00037977       0.00067833      -0.00648710
Ti       1.46803195       1.15213461      27.17186195       0.00000472      -0.00434431       0.00254371
Ti       4.40399152       1.15279658      27.16990204      -0.00001108      -0.00422249       0.00250280
