64
Lattice="5.872 0.0 0.0 0.0 6.890708 0.0 0.0 0.0 27.394398" Properties=species:S:1:pos:R:3:forces:R:3 job_name=T1g-Cu-Cu-34-d-1.29 GB_type=T1g element=Cu system=Cu-34-d-1.29 distance=1.29 energy=-491.04984143 stress_kbar_3x3="_JSON [[-15.68276993, 0.00027577, 0.00097156], [0.00027574, -19.25136159, -3.43136819], [0.00097157, -3.43136816, -23.18767636]]" pbc="T T T"
Ti       4.40368590       5.22041246      27.39045561      -0.00094286      -0.00705562      -0.00725874
Ti       1.46835999       5.22031951      27.39049018       0.00095744      -0.00655821      -0.00750573
Ti       5.87192291       3.19620281       1.28808724       0.00020662      -0.01278017      -0.00484347
Ti       2.93609994       3.19680483       1.28371464      -0.00014752      -0.01155294      -0.00409785
Ti       0.00000369       6.64484811       1.90632954       0.00007660       0.01312352       0.00496371
Ti       2.93604800       6.64346962       1.91094139      -0.00022511       0.00601254       0.00170243
Ti       4.39732848       1.78133528       3.19660334       0.00062920      -0.00180364       0.01658114
Ti       1.47472782       1.78122747       3.19669491      -0.00086232      -0.00097723       0.01616406
Ti       1.47063808       4.60987872       3.41370073      -0.00157389       0.00713371      -0.00036971
Ti       4.40134862       4.60994417       3.41362535       0.00169743       0.00681040       0.00017477
Ti       5.87194526       6.74166806       4.72876477       0.00036239       0.00014698       0.00729358
Ti       2.93606108       6.74663241       4.73538363      -0.00017537       0.00147633       0.00238442
Ti       2.93612818       2.89280465       5.35045471      -0.00072179       0.01144058       0.00036943
Ti       5.87195905       2.89679816       5.33097494       0.00042221       0.00758313       0.00797554
Ti       4.40571690       5.02543153       6.49358723      -0.00502704       0.00919193       0.00577423
Ti       1.46638598       5.02532351       6.49360247       0.00495221       0.00984269       0.00579913
Ti       4.40467718       0.96354316       6.98331769      -0.00032497       0.00193628      -0.00916531
Ti       1.46739518       0.96354134       6.98336097       0.00029160       0.00201965      -0.00930921
Ti       2.93604123       3.13008840       8.19397157      -0.00016303       0.01078451      -0.01306852
Ti       0.00001620       3.14105040       8.16321744       0.00009547       0.00802426      -0.00341982
Ti       2.93604076       6.04558975       8.75830363      -0.00028055       0.00395354      -0.00524715
Ti       0.00004347       6.03911613       8.76931471       0.00008313      -0.00148502      -0.00570372
Ti       4.42604037       1.31483350       9.92300194       0.00670566       0.00386682      -0.00497706
Ti       1.44596869       1.31485774       9.92319775      -0.00641608       0.00380582      -0.00576389
Ti       4.43039071       4.17298121      10.43721523       0.00252079       0.00938821      -0.00252268
Ti       1.44158662       4.17299138      10.43731938      -0.00190675       0.00928835      -0.00312619
Ti       2.93615490       6.30974131      11.63058229      -0.00050260       0.00427060       0.00510016
Ti       0.00000156       6.37833278      11.66940782      -0.00023022       0.00065452       0.00210194
Ti       2.93600514       2.36718424      12.10774921       0.00013120       0.00353797       0.00740218
Ti       0.00002099       2.34744968      12.20181513      -0.00042808       0.00083330       0.00269320
Ti       1.49871723       4.52986939      13.40029354       0.00066139      -0.00414275       0.00375210
Ti       4.37319650       4.52982499      13.39998560      -0.00011078      -0.00347135       0.00496623
Ti       4.42533166       0.53138207      13.85333234       0.00475777       0.00526381       0.00195626
Ti       1.44664585       0.53109447      13.85309187      -0.00418892       0.00638868       0.00225437
Cu       0.00048347       2.61525823      14.96069505      -0.00228751       0.01071922       0.00019849
Ti       2.93602572       2.65919886      14.88537191       0.00048430       0.00117670      -0.01137930
Ti       5.87177367       5.75545644      15.58226441       0.00010619      -0.01522589       0.01295895
Ti       2.93582608       5.79932626      15.60450308       0.00105372       0.00421045       0.00389275
Ti       4.45081081       3.78397337      16.90312028       0.00112944       0.00985257       0.00078919
Ti       1.42122304       3.78408005      16.90301702      -0.00078164       0.01058172       0.00081605
Ti       4.41395594       1.01830629      17.02488759       0.00257218      -0.00736266      -0.00052948
Ti       1.45793106       1.01846690      17.02473671      -0.00257726      -0.00795104      -0.00020027
Ti       0.00008423       5.77853706      18.36903350      -0.00083903      -0.00631396      -0.00735496
Ti       2.93593220       5.78226741      18.38530809       0.00060147      -0.00388625      -0.00801529
Ti       2.93581013       2.74642950      18.99343102       0.00122358      -0.00467208      -0.00389866
Ti       0.00022179       2.74559641      19.03690679      -0.00137890      -0.00205671       0.00102080
Ti       4.40176431       0.60269250      20.14364406      -0.00264569      -0.00684207       0.00234031
Ti       1.47018153       0.60264115      20.14348467       0.00288775      -0.00653110       0.00310793
Ti       1.46728723       4.71180124      20.63436484      -0.00353577      -0.00611242      -0.00415696
Ti       4.40465050       4.71151899      20.63453923       0.00385781      -0.00477305      -0.00515701
Ti       2.93585664       2.54224857      21.80530518       0.00058948      -0.00840773      -0.00451281
Ti       0.00008261       2.54403376      21.82613951      -0.00062937      -0.00756539       0.00139059
Ti       2.93604601       6.52603286      22.41625301      -0.00034903      -0.00649855       0.00853323
Ti       5.87195414       6.52150475      22.42709394       0.00025703      -0.00178647       0.00293569
Ti       4.40208788       4.36018911      23.60609422      -0.00011939      -0.00533243       0.00457956
Ti       1.46995076       4.36020380      23.60572365      -0.00007202      -0.00518797       0.00671594
Ti       4.40256040       1.55682924      24.08498915       0.00056397      -0.00609577       0.00335159
Ti       1.46945058       1.55682778      24.08481049      -0.00062089      -0.00619333       0.00461665
Ti       2.93608470       6.31363443      25.24100416      -0.00055874      -0.00386964       0.00297214
Ti       5.87198994       6.31455710      25.24656949       0.00049838      -0.01071763      -0.00198730
Ti       5.87192171       3.27998522      25.86211872       0.00071774       0.00013378       0.00051312
Ti       2.93605207       3.28250728      25.85955857      -0.00044420      -0.00237767      -0.00116816
Ti       1.46842758       1.15259345      27.17300455       0.00216097       0.00108815      -0.01239486
Ti       4.40358507       1.15257815      27.17319962      -0.00218781       0.00104600      -0.01300775
