64
Lattice="5.872 0.0 0.0 0.0 6.890708 0.0 0.0 0.0 27.394398" Properties=species:S:1:pos:R:3:forces:R:3 job_name=T1g-Zn-Zn-41-d-3.41 GB_type=T1g element=Zn system=Zn-41-d-3.41 distance=3.41 energy=-488.70846308 stress_kbar_3x3="_JSON [[-11.6637784, 0.00055165, -0.00020945], [0.00055167, -11.99952065, 3.39486232], [-0.00020942, 3.3948623, -21.49170488]]" pbc="T T T"
Ti       4.40396958       5.22680742      27.34547693       0.00003689       0.00775920      -0.01697210
Ti       1.46806942       5.22988182      27.34743105      -0.00007280       0.00709398      -0.01756813
Ti       0.00364133       3.22440890       1.28093296      -0.00130392       0.00037672      -0.00378934
Ti       2.93240098       3.22438268       1.28097476       0.00134152       0.00035271      -0.00371726
Ti       5.86894876       6.57769512       1.90362459       0.00029824      -0.00226835       0.00027714
Ti       2.93909335       6.57772917       1.90363197      -0.00027973      -0.00231374       0.00031792
Ti       4.40403403       1.73119460       3.15317068       0.00001195      -0.00986334      -0.00327201
Ti       1.46798108       1.73071752       3.15378644      -0.00003425      -0.01046989      -0.00397110
Ti       1.46800855       4.55495670       3.43848195      -0.00000768      -0.00032611       0.01359077
Ti       4.40402830       4.55575679       3.43684057      -0.00002909      -0.00054149       0.01396639
Ti       5.87147465       6.68987845       4.71844044      -0.00030125       0.00428857      -0.00222034
Ti       2.93653461       6.68986045       4.71852518       0.00029389       0.00432781      -0.00224529
Ti       2.93425710       2.80226825       5.33014789       0.00015151      -0.01275084       0.00239216
Ti       0.00177196       2.80227541       5.33018520      -0.00015839      -0.01280161       0.00230507
Ti       4.40397232       4.93688621       6.48715263       0.00002201      -0.00457044       0.00390696
Ti       1.46801037       4.93860325       6.48652574       0.00002128      -0.00496926       0.00492109
Ti       4.40397073       0.86130065       6.97202120      -0.00002106      -0.00202123       0.00604103
Ti       1.46802868       0.86032320       6.98031145       0.00003609      -0.00154828       0.00415144
Ti       2.93618664       3.00778530       8.15528007      -0.00012784      -0.00265772       0.00145587
Ti       5.87180695       3.00780664       8.15528736       0.00007319      -0.00279930       0.00153767
Ti       2.93208167       5.94858665       8.75778308       0.00088044      -0.00304239       0.00082870
Ti       0.00393175       5.94857054       8.75775904      -0.00091090      -0.00298088       0.00076994
Ti       4.40399222       1.19717624       9.94893319      -0.00009256      -0.00005806      -0.00397824
Ti       1.46803042       1.20587005       9.97062955      -0.00012491      -0.00171235      -0.00201097
Ti       4.40395998       4.01641546      10.39434565      -0.00000384      -0.00133182      -0.00479810
Ti       1.46801442       4.01990327      10.41207962       0.00013261       0.00022673      -0.00424338
Ti       2.93352790       6.11234082      11.57171871       0.00145688       0.00167723      -0.00081411
Ti       0.00247640       6.11231424      11.57165332      -0.00143253       0.00177161      -0.00056638
Ti       2.95822237       2.36980593      12.18845471      -0.00277284      -0.00112628      -0.00017308
Ti       5.84978572       2.36977935      12.18846556       0.00283938      -0.00135364       0.00025536
Ti       1.46802267       4.42933698      13.66265748      -0.00005222      -0.00122993      -0.00432367
Ti       4.40403942       4.44135519      13.56584609      -0.00007832      -0.00043364      -0.00008092
Ti       4.40408419       0.38733492      13.63008038       0.00022461       0.00212932      -0.00183736
Ti       1.46795344       0.40541180      13.58251596      -0.00034093       0.00101240      -0.00274188
Ti       5.83618427       2.38226357      15.02587442      -0.00212447       0.00820558       0.00594790
Ti       2.97185145       2.38227222      15.02590841       0.00224544       0.00844506       0.00626428
Ti       0.06303457       6.09734804      15.63089375      -0.00413144      -0.00551657       0.00532459
Ti       2.87300299       6.09730857      15.63099507       0.00435748      -0.00601608       0.00598215
Ti       4.40400943       4.06288926      16.73339725      -0.00047710      -0.00693480       0.01013844
Ti       1.46802351       3.93170026      16.78292535       0.00038663      -0.00208762       0.00672445
Ti       4.40402575       1.21842964      17.24635569      -0.00022100       0.00698454       0.00764773
Zn       1.46804305       1.14460260      17.19478041      -0.00005164      -0.00834370      -0.00287428
Ti       0.01659154       5.90698896      18.40973525      -0.00291024       0.00103826       0.00224854
Ti       2.91946192       5.90698184      18.40957028       0.00308915       0.00087788       0.00170516
Ti       2.96586094       2.91993085      18.97282942       0.00437166      -0.00090289      -0.00430531
Ti       5.84214640       2.91991823      18.97293863      -0.00427499      -0.00104770      -0.00389790
Ti       4.40404166       0.75319514      20.20349280       0.00012678       0.00056234      -0.00266951
Ti       1.46797590       0.76114527      20.14744461      -0.00026718      -0.00047271      -0.00211436
Ti       1.46799593       4.83445151      20.60566186      -0.00021353       0.00050453      -0.00264638
Ti       4.40404089       4.80662323      20.64544337       0.00018560       0.00435717      -0.00296752
Ti       2.92413776       2.65494177      21.81951898       0.00134331       0.00405833      -0.00373351
Ti       0.01186264       2.65495643      21.81945920      -0.00132362       0.00401396      -0.00389918
Ti       2.92355054       6.59717197      22.41451650       0.00127267       0.00171963      -0.00557768
Ti       0.01240603       6.59716638      22.41450354      -0.00103498       0.00185575      -0.00583797
Ti       4.40398228       4.43246549      23.62426956       0.00001746      -0.00054059       0.00361236
Ti       1.46800934       4.43497616      23.60558133      -0.00001262       0.00112569       0.00313464
Ti       4.40401135       1.60541486      24.06754025      -0.00011885       0.00966739       0.00124214
Ti       1.46801043       1.61055678      24.08128730       0.00011229       0.00959207      -0.00054853
Ti       2.93733415       6.38003703      25.24002482      -0.00016480       0.01144165       0.00090708
Ti       5.87071925       6.38002312      25.24011629       0.00012824       0.01137377       0.00096084
Ti       0.00057542       3.29112243      25.85032237      -0.00063546      -0.00563243      -0.00293147
Ti       2.93542555       3.29112002      25.85034947       0.00064397      -0.00564506      -0.00306102
Ti       1.46801895       1.17324789      27.20450191       0.00000690       0.00503156       0.00384285
Ti       4.40400007       1.17187989      27.20167178      -0.00000106       0.00443929       0.00398762
