64
Lattice="5.872 0.0 0.0 0.0 6.890708 0.0 0.0 0.0 27.394398" Properties=species:S:1:pos:R:3:forces:R:3 job_name=T1g-Cu-Cu-32-d-0.00 GB_type=T1g element=Cu system=Cu-32-d-0.00 distance=0.0 energy=-491.3424846 stress_kbar_3x3="_JSON [[-12.51847696, 0.002025, 0.00048391], [0.00202499, -16.33426369, 0.6114463], [0.00048393, 0.61144632, -25.5805126]]" pbc="T T T"
Ti       4.40388908       5.27749068      27.31047682      -0.00021658      -0.00197809      -0.00515676
Ti       1.46786732       5.27798019      27.31157602       0.00003878      -0.00197338      -0.00457666
Ti       0.00070898       3.30029285       1.29965630       0.00044826       0.01179864       0.00488436
Ti       2.93501973       3.30031502       1.29964004      -0.00059135       0.01199039       0.00464765
Ti       5.86751676       6.55297800       1.92291285       0.00037731      -0.00983620       0.00289491
Ti       2.94018019       6.55296316       1.92288331      -0.00045220      -0.00993859       0.00246591
Ti       4.40387693       1.74098781       3.13549911      -0.00028715      -0.00541702      -0.00742616
Ti       1.46787078       1.73772639       3.12981725       0.00009875      -0.00576106      -0.00653261
Ti       1.46789688       4.56066229       3.50209184      -0.00004237      -0.00438726      -0.00109609
Ti       4.40388170       4.55872773       3.49643247      -0.00032274      -0.00388362      -0.00229502
Ti       0.00240779       6.71500072       4.74951470       0.00283274      -0.00694515      -0.00774353
Ti       2.93345438       6.71499939       4.74945457      -0.00302315      -0.00685617      -0.00708458
Ti       2.93347434       2.78381521       5.35530158      -0.00282190      -0.00488410      -0.00395954
Ti       0.00232962       2.78385467       5.35531913       0.00269745      -0.00523085      -0.00460318
Ti       4.40401314       4.93890070       6.50613276      -0.00003538      -0.00448526       0.00124878
Ti       1.46796440       4.93782401       6.51213607       0.00008407      -0.00362560       0.00057879
Ti       4.40401396       0.86819532       7.01605212       0.00003521      -0.00889079      -0.00152351
Ti       1.46791618       0.86153356       7.03456122       0.00022885      -0.01028862       0.00282977
Ti       2.94046704       3.03882246       8.19652905      -0.00415732      -0.00007846       0.00397493
Ti       5.86774786       3.03872585       8.19641735       0.00372791      -0.00003383       0.00518969
Ti       2.93700608       5.92681929       8.79667155      -0.00197711      -0.01513414       0.00633760
Ti      -0.00078260       5.92681846       8.79642158       0.00137243      -0.01367278       0.00557629
Ti       4.40411497       1.22466991       9.92646587      -0.00011054      -0.01635071       0.00537667
Ti       1.46816887       1.18553227      10.00677740       0.00027728      -0.00233104      -0.00451909
Ti       4.40392449       4.04611560      10.51389934      -0.00053264       0.00154199      -0.00837674
Ti       1.46823574       4.00447485      10.45500758       0.00042181      -0.01468236      -0.00704451
Ti       2.98321872       6.15037836      11.63318949      -0.00045153      -0.01114028      -0.00626419
Ti       5.82542289       6.15077946      11.63357542       0.00068761      -0.01252524      -0.00623727
Ti       2.98530002       2.27450612      12.19164260      -0.00186437      -0.00308880       0.00150788
Ti       5.82328248       2.27425696      12.19208720       0.00030897      -0.00218224      -0.00193916
Ti       1.46823457       4.32029060      13.57103450       0.00193595       0.00256893       0.00369845
Ti       4.40415253       4.44421457      13.55601699      -0.00164012      -0.00112245       0.00460208
Cu       4.40435427       0.38351966      13.61850414       0.00143386       0.00784589      -0.01606271
Ti       1.46771820       0.25342255      13.59584428       0.00421625       0.00668234       0.00808949
Ti       5.82775029       2.26498203      14.95990964       0.00186930      -0.00673067       0.00388822
Ti       2.98082295       2.26524180      14.96045847      -0.00320212      -0.00685783       0.00058230
Ti       5.84062135       6.06543174      15.52905546       0.00293606       0.00874364       0.00297219
Ti       2.96804349       6.06508439      15.52948646      -0.00288751       0.00962130       0.00255687
Ti       4.40397351       3.98124563      16.65605156      -0.00100303      -0.00173150      -0.00192995
Ti       1.46819939       3.93014868      16.72390278       0.00092496      -0.00178677      -0.00325248
Ti       4.40407517       1.14562806      17.20455002       0.00005554       0.00465448      -0.00112275
Ti       1.46810282       1.10893144      17.13234595       0.00030544       0.00547904       0.00122351
Ti       5.87093305       5.85029239      18.36130386       0.00403511       0.00680040       0.00038816
Ti       2.93718984       5.85031357      18.36109848      -0.00454326       0.00506398      -0.00045626
Ti       2.94428321       2.93837964      18.96399001      -0.00235857       0.00491403      -0.00005125
Ti       5.86384842       2.93825722      18.96414220       0.00178928       0.00485548      -0.00129644
Ti       4.40400327       0.76803330      20.13093101       0.00013836       0.01129295       0.00296795
Ti       1.46786662       0.76366577      20.11873860       0.00004183       0.00389904      -0.00092989
Ti       1.46789830       4.83556125      20.64275347       0.00041607       0.01324370       0.00404967
Ti       4.40398820       4.83695097      20.65265389      -0.00006459       0.00767599       0.00178749
Ti       2.93424378       2.67264262      21.80542780      -0.00164034       0.00578466       0.00171015
Ti       0.00153467       2.67267433      21.80547191       0.00146237       0.00543038       0.00218601
Ti       2.93390397       6.64098740      22.40747057      -0.00264677       0.00662795       0.00246095
Ti       0.00187831       6.64096525      22.40743817       0.00252981       0.00650567       0.00263347
Ti       4.40385609       4.47545568      23.62161821      -0.00029899       0.01012946       0.00424253
Ti       1.46787036       4.47734666      23.61447360       0.00024569       0.00745097       0.00235896
Ti       4.40386851       1.66270846      24.06720540      -0.00009234       0.00329591      -0.00145798
Ti       1.46790641       1.66045151      24.07164113      -0.00002518       0.00582942      -0.00133783
Ti       2.93820797       6.44564343      25.23485712      -0.00049842       0.00382014       0.00216132
Ti       5.86956964       6.44568871      25.23491113       0.00027801       0.00392143       0.00203463
Ti       0.00054006       3.32253678      25.85491565       0.00134751       0.00767263       0.00159620
Ti       2.93515980       3.32256426      25.85494525      -0.00149027       0.00774687       0.00191783
Ti       1.46782525       1.22161203      27.24575241      -0.00021565      -0.00012037       0.00321477
Ti       4.40383295       1.21882974      27.24601852      -0.00010536       0.00106355       0.00343971
