64
Lattice="5.872 0.0 0.0 0.0 6.890708 0.0 0.0 0.0 27.394398" Properties=species:S:1:pos:R:3:forces:R:3 job_name=T1g-Zn-Zn-37-d-1.90 GB_type=T1g element=Zn system=Zn-37-d-1.90 distance=1.9 energy=-488.78332173 stress_kbar_3x3="_JSON [[-11.31732676, -0.00012915, 6.545e-05], [-0.00012918, -15.49476389, -0.34355355], [6.547e-05, -0.34355358, -17.22991536]]" pbc="T T T"
Ti       4.41227497       5.21431096      27.39056391      -0.00136428       0.00413581       0.00006850
Ti       1.45970431       5.21428800      27.39055585       0.00128901       0.00394375       0.00006021
Ti       5.87199697       3.18665906       1.27964515       0.00003578       0.00054295       0.00440208
Ti       2.93593377       3.19037301       1.28219285       0.00004053       0.00128907       0.00101445
Ti       5.87193410       6.63748869       1.89976089      -0.00001911       0.00062028      -0.00436753
Ti       2.93596129       6.63579008       1.89600330       0.00013209       0.00239708      -0.00499221
Ti       4.40143403       1.77262397       3.19037116      -0.00138896       0.00940198       0.00326811
Ti       1.47051346       1.77260741       3.19036761       0.00131734       0.00973362       0.00335696
Ti       1.46802789       4.59961011       3.40143235       0.00006419      -0.00323996       0.00176217
Ti       4.40388243       4.59962860       3.40145915      -0.00000459      -0.00313022       0.00163289
Ti       5.87195917       6.73240182       4.71628722       0.00000749      -0.00667691       0.00581717
Ti       2.93601022       6.73011295       4.71210258      -0.00001562      -0.00287985       0.00681734
Ti       2.93592231       2.88520271       5.32304292       0.00000067       0.00352640       0.00176222
Ti      -0.00001412       2.88466480       5.32592363       0.00014071       0.00599569      -0.00130301
Ti       4.40559202       5.01934916       6.48886998       0.00031662       0.00213049      -0.00025827
Ti       1.46642595       5.01930071       6.48884243      -0.00039951       0.00202840      -0.00026268
Ti       4.40454631       0.94157409       6.95851042      -0.00096685      -0.00054349       0.00161313
Ti       1.46744403       0.94159752       6.95848399       0.00085530      -0.00043424       0.00160925
Ti       2.93599254       3.11107032       8.14324740       0.00000175      -0.00038539       0.00108568
Ti       0.00000336       3.11405890       8.15192604       0.00004968       0.00121705       0.00103965
Ti       2.93598795       6.03117878       8.73604161       0.00011198       0.00157067      -0.00009193
Ti       0.00000342       6.02979087       8.75811633      -0.00006001       0.00004349       0.00532823
Ti       4.40190349       1.31864331       9.92613949       0.00071376      -0.00446009      -0.00386093
Ti       1.47015510       1.31863006       9.92612400      -0.00068592      -0.00431743      -0.00380067
Ti       4.40542011       4.11058235      10.41864086       0.00259908      -0.00001025      -0.00238233
Ti       1.46661734       4.11058621      10.41860345      -0.00260916      -0.00007999      -0.00228308
Ti       2.93605190       6.27597835      11.51989743       0.00000477      -0.00592351      -0.00122940
Ti       0.00001441       6.26526074      11.55871374      -0.00003347      -0.00807500      -0.00422354
Ti       2.93604661       2.39153336      12.19768946       0.00002370      -0.00482936       0.00427287
Ti      -0.00000208       2.39109387      12.17677400       0.00000109      -0.00223636       0.00493929
Ti       1.46871297       4.52458597      13.48872709      -0.00124755      -0.00509172       0.00481318
Ti       4.40338323       4.52457744      13.48872333       0.00121110      -0.00536754       0.00470743
Ti       4.36511160       0.41687134      13.68076348       0.00430925       0.00575752      -0.00118410
Ti       1.50696287       0.41683527      13.68079126      -0.00442394       0.00565674      -0.00130705
Ti       0.00002832       2.42862035      14.96684194       0.00002795      -0.01103290      -0.00665053
Ti       2.93605146       2.42052545      15.00423552       0.00008859      -0.01594970      -0.00954185
Ti       0.00007409       5.98998729      15.67278979       0.00005051       0.01593053      -0.00370237
Zn       2.93603422       5.95150932      15.58768928       0.00012708       0.00411582       0.00561605
Ti       4.43410010       3.92372141      16.85219434      -0.00391637       0.00083329      -0.00618284
Ti       1.43801468       3.92374745      16.85221268       0.00380714       0.00080261      -0.00632069
Ti       4.43507579       1.04612907      17.14813539       0.00045256      -0.00258572       0.00111458
Ti       1.43703107       1.04612951      17.14814868      -0.00053590      -0.00274435       0.00111566
Ti       0.00005009       5.79117331      18.49240268       0.00000700       0.00648924      -0.00539278
Ti       2.93604777       5.77563085      18.39938650       0.00000565       0.00683952       0.00367087
Ti       2.93606575       2.84993785      18.94795086      -0.00004162       0.00074602       0.00273308
Ti       0.00003364       2.78199509      19.00614384       0.00010192       0.00132587       0.00396748
Ti       4.37081323       0.66666211      20.17737704      -0.00043077       0.00203012       0.00154072
Ti       1.50127191       0.66668067      20.17739660       0.00040765       0.00212352       0.00148591
Ti       1.48757338       4.71153784      20.66291752       0.00238952       0.00156174       0.00385938
Ti       4.38453247       4.71157719      20.66290331      -0.00252100       0.00153047       0.00385798
Ti       2.93600755       2.55842982      21.82529544      -0.00007940      -0.00110611       0.00337255
Ti       0.00004890       2.56729382      21.85168024       0.00003873      -0.00286547       0.00482900
Ti       2.93602687       6.54756431      22.43609503       0.00000202       0.00168387       0.00405339
Ti       0.00001364       6.53484018      22.41332599      -0.00009493       0.00209124      -0.00025359
Ti       4.40203219       4.37799885      23.61445000       0.00320798      -0.00030003      -0.00155619
Ti       1.46995443       4.37796242      23.61447577      -0.00323017      -0.00036459      -0.00167453
Ti       4.39976738       1.55552673      24.10175640       0.00313551      -0.00240812      -0.00324440
Ti       1.47221949       1.55555409      24.10173497      -0.00306349      -0.00225198      -0.00320853
Ti       2.93599015       6.32019918      25.26270427       0.00012070       0.00134442      -0.00270020
Ti      -0.00001007       6.31675643      25.24201452      -0.00002520       0.00440440      -0.00119991
Ti       0.00001400       3.28383402      25.85766955       0.00001028      -0.00366275      -0.00436101
Ti       2.93595274       3.28028023      25.86360880      -0.00002160      -0.00399686      -0.00358121
Ti       1.46555140       1.15260896      27.17209564       0.00091496      -0.00339771      -0.00474244
Ti       4.40636538       1.15257480      27.17209434      -0.00094221      -0.00349607      -0.00472765
