64
Lattice="5.872 0.0 0.0 0.0 6.890708 0.0 0.0 0.0 27.394398" Properties=species:S:1:pos:R:3:forces:R:3 job_name=T1g-V-V-47-d-6.48 GB_type=T1g element=V system=V-47-d-6.48 distance=6.48 energy=-496.05842874 stress_kbar_3x3="_JSON [[-11.92536502, 0.00157479, 0.00045661], [0.00157479, -13.95593165, -4.48825252], [0.00045662, -4.48825251, -21.43699659]]" pbc="T T T"
Ti       4.40401617       4.99282804       0.10622973       0.00000328      -0.00563248       0.00557002
Ti       1.46802970       4.99178148       0.10760445       0.00001205      -0.00531523       0.00478771
Ti       0.00011527       2.86390761       1.25939360       0.00056411      -0.00477022       0.00251810
Ti       2.93592683       2.86390080       1.25947262      -0.00044808      -0.00490849       0.00263537
Ti       5.87134197       6.72701260       1.87546191       0.00038919      -0.00726463       0.00474922
Ti       2.93670169       6.72700659       1.87545179      -0.00030903      -0.00715643       0.00498357
Ti       4.40399826       1.77583738       3.40395373      -0.00022882      -0.00653149       0.01277821
Ti       1.46806380       1.77486140       3.40259314       0.00016420      -0.00635279       0.01194735
Ti       1.46807537       4.59768843       3.19038482      -0.00009597      -0.00033027      -0.00277823
Ti       4.40399583       4.59926797       3.18975697       0.00008348      -0.00062667      -0.00242461
Ti       0.00007122       6.64395471       4.70042835      -0.00035454      -0.01190132       0.00271295
Ti       2.93599792       6.64399969       4.70041818       0.00032453      -0.01176035       0.00244179
Ti       2.93446152       3.20054784       5.32283654       0.00045208       0.00599375       0.00166297
Ti       0.00161625       3.20052930       5.32284050      -0.00048246       0.00624406       0.00188720
Ti       4.40407616       5.22887519       6.61809084       0.00019325       0.00160609       0.00163211
Ti       1.46797128       5.22937185       6.61827693      -0.00014177       0.00130444       0.00192170
Ti       4.40403146       1.16622529       6.83236591      -0.00002641       0.00562900      -0.01362799
Ti       1.46801132       1.16571863       6.83289561       0.00005617       0.00571303      -0.01352626
Ti       2.93548549       3.30233306       8.14775189       0.00028715      -0.00258352      -0.01045742
Ti       0.00056226       3.30238113       8.14775546      -0.00026027      -0.00237891      -0.01068241
Ti       2.93603228       6.34328805       8.75732504      -0.00011676       0.00731795      -0.00635051
Ti       0.00000959       6.34330000       8.75734743       0.00000214       0.00695532      -0.00628861
Ti       4.40397187       1.59085455       9.91544362      -0.00006549       0.00773089      -0.00657075
Ti       1.46805313       1.59002961       9.91669738       0.00007099       0.00732466      -0.00705438
Ti       4.40403213       4.41079993      10.39622541       0.00008794       0.00632322      -0.00545732
Ti       1.46800470       4.40988054      10.39491886      -0.00007600       0.00692708      -0.00556136
Ti       2.93704908       6.58730213      11.58252627      -0.00019678       0.00038717      -0.00036617
Ti       5.87092626       6.58730041      11.58255921       0.00027992       0.00017464      -0.00033254
Ti       2.93678594       2.61362853      12.18341262      -0.00031002       0.00694200      -0.00084837
Ti       5.87124131       2.61361752      12.18344179       0.00028188       0.00718066      -0.00074369
Ti       1.46795994       4.79122542      13.34476110       0.00003111       0.00208489       0.00394746
Ti       4.40402528       4.79277683      13.34928911       0.00009738       0.00110063       0.00356099
Ti       4.40400736       0.72385461      13.85862018      -0.00000892       0.00115066       0.00664216
Ti       1.46802729       0.72833359      13.85527816      -0.00007673       0.00009181       0.00759248
Ti      -0.00010483       2.89745762      15.02836412      -0.00256258       0.00378899       0.00873533
Ti       2.93610030       2.89746159      15.02833494       0.00253895       0.00370264       0.00883851
Ti       0.00199298       5.83761614      15.61725271      -0.00235653       0.00094470       0.00838313
Ti       2.93400077       5.83753080      15.61729269       0.00234635       0.00125642       0.00847524
Ti       4.40391224       3.94789222      17.24307801      -0.00010520       0.00065251      -0.00128329
Ti       1.46802947       3.95367554      17.27072818       0.00008611      -0.00153950      -0.00179988
Ti       4.40397421       1.10454597      16.85835894      -0.00007917       0.00711733       0.00413521
Ti       1.46797357       1.12451110      16.82777798       0.00014613       0.00276542       0.00502615
Ti       0.05678134       6.06548435      18.46925111       0.00063886       0.00107021      -0.00318635
Ti       2.87920821       6.06547586      18.46925726      -0.00071576       0.00101174      -0.00335268
Ti       2.90581820       2.30838892      19.02971547      -0.00095642       0.00246254      -0.01573302
Ti       0.03012148       2.30843091      19.02979584       0.00093128       0.00208887      -0.01522370
Ti       4.40396185       0.35809191      20.40809673       0.00022861      -0.00682525       0.00023625
V        1.46801829       0.46878874      20.41390828      -0.00014008      -0.00784831       0.00009539
Ti       1.46798129       4.46363200      20.45194655      -0.00008821       0.00966455       0.00001810
Ti       4.40395925       4.38064330      20.44548266       0.00009294       0.00455517       0.00087864
Ti       2.91293319       2.32535103      21.83468128      -0.00035639       0.00293825       0.00845568
Ti       0.02311227       2.32532660      21.83466613       0.00029241       0.00281797       0.00794340
Ti       2.88253719       6.16107134      22.39523277      -0.00071707      -0.00501706       0.00175095
Ti       0.05338262       6.16107447      22.39520264       0.00071824      -0.00474445       0.00156633
Ti       4.40402555       4.05342442      23.58536187      -0.00027097      -0.00082512      -0.00200084
Ti       1.46802102       4.04949690      23.56522384       0.00016735      -0.00353061      -0.00245525
Ti       4.40400130       1.22650461      24.03241026      -0.00004671       0.00178197      -0.00562634
Ti       1.46797849       1.24277557      24.05808619       0.00012189      -0.00085102      -0.00349705
Ti       2.93408258       5.97856932      25.23534464       0.00219037      -0.00380282      -0.00127914
Ti       0.00202859       5.97859690      25.23529667      -0.00225710      -0.00387867      -0.00108320
Ti       5.86991052       3.06333876      25.82953772      -0.00264951      -0.00543714      -0.00097008
Ti       2.93812161       3.06336098      25.82953674       0.00269313      -0.00545711      -0.00119114
Ti       1.46806708       0.91337358      27.01807495      -0.00006654      -0.00442535       0.00138234
Ti       4.40403941       0.90973726      27.01515893      -0.00000716      -0.00510601       0.00186059
