64
Lattice="5.872 0.0 0.0 0.0 6.890708 0.0 0.0 0.0 27.394398" Properties=species:S:1:pos:R:3:forces:R:3 job_name=T1g-Zn-Zn-46-d-6.48 GB_type=T1g element=Zn system=Zn-46-d-6.48 distance=6.48 energy=-488.90972291 stress_kbar_3x3="_JSON [[-10.44094544, 0.00079808, -0.0002688], [0.00079807, -10.8964328, -1.92512193], [-0.00026876, -1.92512192, -19.90413252]]" pbc="T T T"
Ti       4.40403989       5.11052939       0.09646578      -0.00020442      -0.01368895      -0.00417041
Ti       1.46803015       5.10649321       0.09277306      -0.00026651      -0.00252218       0.00448353
Ti       0.00216610       3.00778068       1.26659666      -0.00188780       0.00147261      -0.00996720
Ti       2.93384837       3.00774898       1.26648798       0.00206968       0.00165308      -0.00922288
Ti       0.00036109       6.76120623       1.87807362      -0.00006156      -0.01130683      -0.01060881
Ti       2.93562180       6.76117299       1.87779852       0.00019216      -0.01072584      -0.00922345
Ti       4.40419580       1.82198388       3.32279714      -0.00038341       0.00896971      -0.01021344
Ti       1.46795901       1.82006037       3.32549829       0.00041448       0.00955549      -0.00596513
Ti       1.46809806       4.65907634       3.27896979      -0.00024246       0.00685740      -0.01610917
Ti       4.40405274       4.65629378       3.27903617      -0.00005409       0.01713449      -0.00882745
Ti       5.86926610       6.74088473       4.71042045      -0.00063252      -0.01172241      -0.00377687
Ti       2.93890598       6.74094033       4.71032720       0.00063294      -0.01169839      -0.00432136
Ti       2.93654156       3.08094068       5.32766665      -0.00162006       0.01160639       0.01256257
Ti       5.87174516       3.08103105       5.32762748       0.00134997       0.01169158       0.01368710
Ti       4.40398171       5.16300322       6.52862926       0.00015737       0.00157886       0.01047753
Ti       1.46815628       5.16209072       6.52768274      -0.00011259       0.00128132       0.01205597
Ti       4.40406858       1.09318708       6.90623789      -0.00002044       0.00278250       0.00950984
Ti       1.46808411       1.09454480       6.90599186       0.00008660       0.00215250       0.00814108
Ti       2.93574120       3.24761218       8.14595114      -0.00114228       0.00287728       0.00525447
Ti       0.00028612       3.24756511       8.14606974       0.00115330       0.00302822       0.00440156
Ti       2.93672369       6.21295202       8.75193536      -0.00169893       0.00063042       0.00265759
Ti       5.87137205       6.21294223       8.75191549       0.00159829       0.00068582       0.00215879
Ti       4.40399083       1.47802033       9.90977712      -0.00009825      -0.00046847      -0.00090022
Ti       1.46793682       1.47657098       9.90938165       0.00040907      -0.00375838      -0.00179627
Ti       4.40401449       4.29768742      10.41679541      -0.00017070       0.00445713      -0.00176783
Ti       1.46799998       4.29744562      10.41949621       0.00020928       0.00382713      -0.00533733
Ti       2.93572419       6.46350475      11.58543468      -0.00300366       0.00206507      -0.00394221
Ti       0.00023355       6.46352329      11.58530594       0.00311386       0.00213212      -0.00342653
Ti       2.93587397       2.50153365      12.18671903       0.00356979      -0.00106106      -0.00350669
Ti       0.00014230       2.50158181      12.18668055      -0.00361713      -0.00148479      -0.00290764
Ti       1.46798077       4.66126883      13.37851731      -0.00001108      -0.00351448      -0.00478302
Ti       4.40401338       4.66576215      13.37622242       0.00002030      -0.00130965       0.00302905
Ti       4.40406705       0.59524852      13.85495826      -0.00026519       0.00175247      -0.00869612
Ti       1.46797918       0.60035643      13.84739593       0.00011687      -0.00057116      -0.00141880
Ti       5.85969270       2.71788742      15.00223420      -0.00372316      -0.00041712      -0.00271091
Ti       2.94832055       2.71794756      15.00219220       0.00365561      -0.00098056      -0.00241151
Ti       0.00181704       5.80735639      15.61878986      -0.00237367       0.00809464       0.00365676
Ti       2.93420841       5.80730553      15.61865830       0.00241522       0.00826294       0.00415805
Ti       4.40397934       3.88205090      17.14287249      -0.00020776       0.00820626       0.00534690
Ti       1.46798338       3.86220336      17.11226235       0.00019842      -0.00954135       0.01260384
Ti       4.40398730       1.03768629      16.94989402      -0.00004542       0.00559444       0.00058849
Ti       1.46804120       1.02530175      16.95423004      -0.00009416       0.00852721       0.00171848
Ti       0.04044540       5.83990586      18.45453659      -0.01048253       0.01544386       0.00672976
Ti       2.89549042       5.84002781      18.45446191       0.01057441       0.01476180       0.00691176
Ti       2.95983218       2.49878465      19.04083083       0.00060862      -0.00756182      -0.01580267
Ti       5.84814255       2.49887019      19.04076501      -0.00051283      -0.00800581      -0.01509978
Zn       4.40396901       0.48615165      20.22117939       0.00028727      -0.00371765      -0.00399814
Ti       1.46806878       0.41408145      20.24881876      -0.00064301       0.00526616      -0.00183955
Ti       1.46796624       4.47777219      20.57832005       0.00004803      -0.00147455      -0.00583696
Ti       4.40401139       4.56786018      20.60176561      -0.00017493       0.00337019      -0.01517205
Ti       2.97829329       2.37818345      21.81872919      -0.00552837      -0.00113064       0.00815625
Ti       5.82974896       2.37813135      21.81875302       0.00544862      -0.00099515       0.00769372
Ti       2.96005337       6.34398245      22.39834687       0.00462851      -0.00187176       0.00743107
Ti       5.84783882       6.34402638      22.39832716      -0.00418874      -0.00184084       0.00707130
Ti       4.40406248       4.21570417      23.52729835      -0.00032423      -0.00789931       0.01229582
Ti       1.46801326       4.19550783      23.57351966      -0.00023671      -0.00801958       0.00641771
Ti       4.40399710       1.39476566      24.12117784      -0.00018414      -0.00306403       0.00400756
Ti       1.46788505       1.37031330      24.05927772       0.00038644       0.00081150      -0.00130141
Ti       2.93488770       6.11518699      25.23014323      -0.00046657      -0.00979462       0.00141771
Ti       0.00096290       6.11504119      25.23002325       0.00088561      -0.00914028       0.00200893
Ti       5.86812369       3.19655382      25.83610834      -0.00432342      -0.00400492       0.00352556
Ti       2.93982018       3.19652701      25.83605622       0.00443796      -0.00377987       0.00352303
Ti       1.46787126       1.03788792      27.03736150       0.00013935      -0.01752014       0.00020339
Ti       4.40392987       1.04030096      27.05569451       0.00019468      -0.00193801       0.00117665
