64
Lattice="5.872 0.0 0.0 0.0 6.890708 0.0 0.0 0.0 27.394398" Properties=species:S:1:pos:R:3:forces:R:3 job_name=T1g-Zn-Zn-39-d-3.19 GB_type=T1g element=Zn system=Zn-39-d-3.19 distance=3.19 energy=-488.97024016 stress_kbar_3x3="_JSON [[-10.24075022, 0.0015797, 0.00062303], [0.00157973, -13.04689839, -0.5335183], [0.00062304, -0.5335183, -21.39436985]]" pbc="T T T"
Ti       4.40406519       5.16507183       0.08649544       0.00003771      -0.00306205       0.00363435
Ti       1.46807954       5.16896893       0.08319634      -0.00004530      -0.00274391       0.00314861
Ti       0.00541749       3.08439148       1.27202652      -0.00187013      -0.00754405       0.00167254
Ti       2.93073930       3.08439653       1.27204450       0.00182457      -0.00755423       0.00176412
Ti       5.87043725       6.75977872       1.89047381       0.00053041       0.00071773      -0.00074939
Ti       2.93775704       6.75978443       1.89048565      -0.00057629       0.00060958      -0.00087729
Ti       4.40406299       1.83986583       3.28343990      -0.00010422      -0.00340866       0.00814692
Ti       1.46803217       1.83771807       3.28464989       0.00005481      -0.00226988       0.00779731
Ti       1.46808602       4.67506565       3.31938597      -0.00011774       0.00258351      -0.00119105
Ti       4.40408882       4.67858729       3.31885624      -0.00009370       0.00180303      -0.00042883
Ti       5.87052077       6.77385032       4.71949202       0.00097237      -0.00232175       0.00340835
Ti       2.93750270       6.77383129       4.71949715      -0.00089730      -0.00231665       0.00338019
Ti       2.93232156       3.03088717       5.33446810       0.00085307       0.00145812       0.00294124
Ti       0.00372673       3.03087477       5.33447478      -0.00097046       0.00148054       0.00291750
Ti       4.40401656       5.12962442       6.50051057       0.00001786       0.00329477       0.00218514
Ti       1.46799855       5.13229687       6.50422674      -0.00003202       0.00357393       0.00091734
Ti       4.40400772       1.05964678       6.94357442       0.00007341      -0.00041245      -0.00248448
Ti       1.46800332       1.05835874       6.93788003      -0.00008175       0.00005349      -0.00020773
Ti       2.93783464       3.21915683       8.15510376      -0.00036125      -0.00215315       0.00067669
Ti       5.87014470       3.21916471       8.15511908       0.00043959      -0.00216540       0.00071636
Ti       2.93789584       6.14854411       8.75434904      -0.00032001       0.00275690       0.00117324
Ti       5.87010430       6.14855932       8.75438887       0.00030839       0.00283745       0.00102714
Ti       4.40399126       1.41497935       9.91493003      -0.00000978      -0.00270341       0.00337644
Ti       1.46799529       1.41731887       9.90579168      -0.00004409      -0.00125335       0.00627246
Ti       4.40395945       4.23527327      10.43702466       0.00015695       0.00074758       0.00387042
Ti       1.46798268       4.23965143      10.42722021       0.00007051       0.00068764       0.00928184
Ti       2.92730783       6.40157558      11.58888915       0.00023896       0.00251763       0.00819904
Ti       0.00862673       6.40154498      11.58890371      -0.00016940       0.00264638       0.00814880
Ti       2.93600427       2.43214667      12.19617072       0.00038394      -0.00040124       0.00455663
Ti      -0.00001360       2.43218570      12.19613070      -0.00042325      -0.00041524       0.00465699
Ti       1.46801745       4.60634707      13.35295414      -0.00008909       0.00268171       0.00425922
Ti       4.40396055       4.57210626      13.41213650       0.00008584       0.00199330       0.00066031
Ti       4.40393675       0.50376224      13.83206454       0.00003745       0.00399287       0.00163108
Ti       1.46800343       0.55514226      13.89084388      -0.00003838      -0.00098283       0.00090917
Ti       0.01177326       2.62214457      15.02833325      -0.00114251       0.00025201       0.00114418
Ti       2.92414296       2.62214032      15.02833472       0.00104512       0.00022533       0.00100235
Ti       0.02833354       5.74150447      15.60358499       0.00057181       0.00326989      -0.00533682
Ti       2.90760140       5.74149492      15.60358551      -0.00061470       0.00340712      -0.00557512
Ti       4.40395606       3.72378340      17.00019187       0.00022598       0.00059047      -0.00582232
Zn       1.46794712       3.84261186      16.99673931      -0.00008829       0.00390464      -0.00189367
Ti       4.40394002       0.89480823      17.01021706       0.00009412       0.00155792      -0.00558346
Ti       1.46793583       1.00108732      17.01441808      -0.00001023       0.00012950      -0.00412521
Ti       0.02969954       5.73972132      18.40762458       0.00303348       0.00643426      -0.00007208
Ti       2.90619659       5.73973880      18.40764345      -0.00303468       0.00647184       0.00019395
Ti       2.91961857       2.64609498      18.98322344      -0.00231441       0.00188849      -0.00146086
Ti       0.01619934       2.64609621      18.98318616       0.00240475       0.00193053      -0.00148402
Ti       4.40397240       0.52396950      20.17193376      -0.00000204       0.00264980      -0.00138141
Ti       1.46796791       0.57462582      20.11480289      -0.00001681      -0.00261733      -0.00064422
Ti       1.46796890       4.63002945      20.66552967      -0.00008076       0.00164715      -0.00108828
Ti       4.40394082       4.59526162      20.60558071       0.00006296       0.00391929      -0.00164713
Ti       2.93657011       2.45525080      21.81247872      -0.00116461       0.00252985      -0.00318629
Ti       5.87147204       2.45524632      21.81247638       0.00119686       0.00250816      -0.00329952
Ti       2.92803537       6.43530440      22.41884643      -0.00017598      -0.00001683      -0.00746388
Ti       0.00794022       6.43530922      22.41884960       0.00021865      -0.00013682      -0.00745456
Ti       4.40406276       4.26977784      23.57392878       0.00009089       0.00019207      -0.00830013
Ti       1.46805227       4.27526785      23.58347831      -0.00002852       0.00066104      -0.00869597
Ti       4.40406349       1.45434794      24.09263827      -0.00005406      -0.00366255      -0.00465799
Ti       1.46802707       1.45682543      24.10011700      -0.00002377      -0.00431089      -0.00595276
Ti       2.93750741       6.19582870      25.24959437      -0.00006182      -0.00459764      -0.00207468
Ti       5.87066186       6.19582428      25.24957905       0.00011416      -0.00481735      -0.00201044
Ti       5.87075020       3.24892660      25.85112472      -0.00106700      -0.00320542      -0.00181146
Ti       2.93743283       3.24893096      25.85113697       0.00100131      -0.00330415      -0.00184211
Ti       1.46813978       1.09588717      27.08587019      -0.00007651      -0.00602451      -0.00277959
Ti       4.40412095       1.09755133      27.08201829       0.00005490      -0.00620378      -0.00208714
