64
Lattice="5.872 0.0 0.0 0.0 6.890708 0.0 0.0 0.0 27.394398" Properties=species:S:1:pos:R:3:forces:R:3 job_name=T1g-Zn-Zn-48-d-6.96 GB_type=T1g element=Zn system=Zn-48-d-6.96 distance=6.96 energy=-488.72522398 stress_kbar_3x3="_JSON [[-12.27949552, -0.00053635, -0.0004391], [-0.00053633, -11.73079382, 0.27109285], [-0.00043908, 0.27109289, -21.60040569]]" pbc="T T T"
Ti       4.40383479       5.20334771      27.36329831       0.00004103      -0.00711749      -0.00634133
Ti       1.46803316       5.20883279      27.37622224       0.00002471      -0.00133046      -0.00430667
Ti       5.86840194       3.18921259       1.27372039       0.00066137      -0.00010290      -0.00295297
Ti       2.93956965       3.18912372       1.27383148      -0.00071740      -0.00009397      -0.00320217
Ti       5.86848264       6.62937683       1.89313007       0.00275260      -0.00511578      -0.00712761
Ti       2.93951079       6.62948133       1.89323814      -0.00279109      -0.00513827      -0.00696057
Ti       4.40408098       1.76766386       3.18729136      -0.00003615      -0.00186635      -0.00851270
Ti       1.46777415       1.76648122       3.18542581       0.00016250      -0.00218062      -0.01082084
Ti       1.46795642       4.59617472       3.40147045       0.00005510      -0.00898248      -0.00577148
Ti       4.40406938       4.59652430       3.40411929      -0.00008321      -0.01015930      -0.00627025
Ti       0.00136733       6.72403047       4.71496135       0.00054188       0.00135218      -0.00560490
Ti       2.93454701       6.72401715       4.71504049      -0.00041106       0.00145960      -0.00571243
Ti       2.93577345       2.87718291       5.32550556       0.00027779      -0.00630144      -0.00673321
Ti       0.00010181       2.87719641       5.32559710      -0.00012627      -0.00643971      -0.00682035
Ti       4.40394295       5.00561070       6.48490888       0.00005907      -0.00094294      -0.00126216
Ti       1.46792957       5.00622335       6.48470582      -0.00008258      -0.00135889      -0.00189087
Ti       4.40395072       0.93371503       6.96056832      -0.00007884      -0.00164499       0.00073192
Ti       1.46793233       0.93217498       6.96156331       0.00006349      -0.00292612       0.00003941
Ti       2.93558459       3.09258400       8.14561373      -0.00026934      -0.00218246       0.00683084
Ti       0.00029433       3.09260206       8.14566702       0.00034402      -0.00214982       0.00679341
Ti       2.93503864       6.02243250       8.74530262      -0.00024665      -0.00128562       0.01052237
Ti       0.00087850       6.02243717       8.74536283       0.00024608      -0.00139975       0.01042226
Ti       4.40399383       1.29229712       9.92729234      -0.00008403      -0.00328556       0.01274627
Ti       1.46801966       1.29208723       9.92825505       0.00009129      -0.00343892       0.01038964
Ti       4.40394373       4.10901610      10.40512631       0.00002339      -0.00425276       0.01166479
Ti       1.46796259       4.10842484      10.40550626       0.00009054      -0.00372915       0.01144499
Ti       2.94028406       6.23691146      11.56831021       0.00081825      -0.00680491       0.00829021
Ti       5.86775170       6.23692013      11.56838322      -0.00075041      -0.00683206       0.00840506
Ti       2.93245404       2.38774812      12.17610205      -0.00119507      -0.00258977       0.00730043
Ti       0.00365525       2.38778908      12.17611840       0.00124861      -0.00272682       0.00741389
Ti       1.46815539       4.51130498      13.50105455      -0.00015238      -0.00167352       0.01046921
Ti       4.40413519       4.51125923      13.49169934      -0.00027124      -0.00202793       0.01064568
Ti       4.40397179       0.45352805      13.70101596       0.00009131       0.00035680      -0.00002664
Ti       1.46814234       0.44818669      13.70288912      -0.00033169      -0.00476956      -0.00279825
Ti       0.01248966       2.46257722      14.99722155       0.00574420      -0.00317498       0.00199949
Ti       2.92370044       2.46265131      14.99729095      -0.00572262      -0.00320442       0.00208085
Ti       5.84794930       5.93265718      15.62216452      -0.00234326       0.00301297      -0.00283226
Ti       2.96028982       5.93258049      15.62226471       0.00234312       0.00298871      -0.00282688
Ti       4.40411373       3.89166271      16.90676266      -0.00007388       0.00095579      -0.00282662
Ti       1.46798812       3.89873160      16.86323147       0.00015068       0.00388960      -0.00817726
Ti       4.40420185       1.06050039      17.10432939      -0.00026856       0.00974445       0.00786146
Ti       1.46816078       1.04778534      17.17680822      -0.00004318       0.00556284       0.00671864
Ti       5.85952710       5.85021531      18.45174691      -0.00088118       0.00320727       0.00615138
Ti       2.94862058       5.85026776      18.45181925       0.00084090       0.00313313       0.00609177
Ti       2.88870603       2.82251806      19.03745829      -0.00121702       0.00901858      -0.00248065
Ti       0.04739408       2.82253341      19.03747836       0.00126023       0.00898244      -0.00234985
Ti       4.40399748       0.73837241      20.15399963       0.00004972       0.01813725      -0.00800380
Ti       1.46795673       0.63904222      20.18227719       0.00009357       0.00405554      -0.00132109
Zn       1.46801246       4.73611753      20.66478123       0.00006027      -0.00294158      -0.00681169
Ti       4.40405851       4.79853670      20.71061410       0.00001657       0.01294093       0.00314370
Ti       2.92159200       2.60824258      21.83253351       0.00006841       0.00602218      -0.00596188
Ti       0.01439294       2.60827469      21.83249870      -0.00007756       0.00595187      -0.00592151
Ti       2.95933603       6.52601703      22.40006231       0.00085788       0.00575030      -0.00872435
Ti       5.84864398       6.52607270      22.40010540      -0.00078234       0.00552567      -0.00883141
Ti       4.40398749       4.36727092      23.65781806      -0.00007899      -0.00060057       0.00460743
Ti       1.46801703       4.37579450      23.60105134       0.00003771       0.00264250       0.00012331
Ti       4.40399017       1.53858724      24.06502391      -0.00003163       0.00993441      -0.00427893
Ti       1.46795050       1.57222128      24.02315178       0.00007310       0.00091532      -0.00672070
Ti       2.92325359       6.32096018      25.23773310      -0.00215168       0.00124266      -0.00016101
Ti       0.01269022       6.32096143      25.23779682       0.00219007       0.00125136      -0.00015012
Ti       0.01145298       3.26424353      25.84474016      -0.00083840       0.00164897       0.00087706
Ti       2.92455308       3.26421538      25.84485702       0.00087515       0.00178262       0.00085073
Ti       1.46808567       1.14691273      27.15684953      -0.00011092      -0.00491974      -0.00263813
Ti       4.40400888       1.14742676      27.18029382      -0.00000595      -0.00577436      -0.00048263
