64
Lattice="5.872 0.0 0.0 0.0 6.890708 0.0 0.0 0.0 27.394398" Properties=species:S:1:pos:R:3:forces:R:3 job_name=T1g-Al-Al-33-d-0.00 GB_type=T1g element=Al system=Al-33-d-0.00 distance=0.0 energy=-492.05063991 stress_kbar_3x3="_JSON [[-10.61850412, -0.00045349, 0.00116584], [-0.00045345, -10.4720492, -0.80602856], [0.00116585, -0.80602853, -20.44876686]]" pbc="T T T"
Ti       4.40396298       5.21379733      27.39096263       0.00000594      -0.00223850      -0.00023748
Ti       1.46802856       5.21271547      27.39062977      -0.00000860      -0.00154372      -0.00033092
Ti       5.86965774       3.19026603       1.28729970      -0.00035735       0.00255694      -0.00313541
Ti       2.93832875       3.19022883       1.28736531       0.00034114       0.00261918      -0.00325640
Ti       0.00676036       6.63242943       1.90660854       0.00067817       0.00270160       0.00098229
Ti       2.92925843       6.63243960       1.90665719      -0.00076396       0.00278062       0.00078562
Ti       4.40403622       1.76591872       3.19082353      -0.00011433       0.00100209      -0.00039829
Ti       1.46793369       1.76942635       3.19477589      -0.00005750       0.00111901      -0.00282732
Ti       1.46796764       4.59742545       3.41077957       0.00011205       0.00409903       0.00178698
Ti       4.40399631       4.59814981       3.41366791      -0.00003903       0.00354807      -0.00205712
Ti       5.87111879       6.72985759       4.72846398       0.00048337       0.00032057      -0.00045462
Ti       2.93681023       6.72984784       4.72846633      -0.00046419       0.00031636      -0.00031784
Ti       2.93910672       2.87644978       5.33359159      -0.00138321       0.00075802       0.00372600
Ti       5.86877274       2.87647309       5.33362209       0.00154225       0.00058931       0.00377102
Ti       4.40395930       5.00642467       6.49291118      -0.00003067      -0.00483496       0.00082565
Ti       1.46797314       5.00709978       6.48811753      -0.00000923       0.00099171       0.00051862
Ti       4.40395743       0.93646818       6.98157976       0.00003370      -0.00226369       0.00134919
Ti       1.46794873       0.94092555       6.96695437       0.00003345       0.00181024       0.00076495
Ti       2.92948878       3.10603931       8.16038532      -0.00501431      -0.00084914       0.00098475
Ti       0.00652080       3.10605935       8.16041483       0.00492752      -0.00097204       0.00089565
Ti       2.93697694       6.02095681       8.76268329       0.00204333       0.00262885       0.01123360
Ti       5.87095221       6.02095519       8.76267514      -0.00192055       0.00266700       0.01128374
Ti       4.40403419       1.28090752       9.94910656      -0.00003723       0.00089212       0.00735116
Ti       1.46801200       1.31641250       9.88656644      -0.00001378       0.00748535       0.00323984
Ti       4.40399696       4.11090933      10.41415470       0.00005776      -0.00629760      -0.00114164
Ti       1.46799418       4.13681606      10.45073379      -0.00005614       0.01114518       0.00717489
Ti       2.91174109       6.25812885      11.59630146       0.00284362      -0.00300478       0.01442391
Ti       0.02437362       6.25813845      11.59630452      -0.00285104      -0.00294583       0.01449641
Ti       2.90263564       2.35053707      12.18617197       0.00016355       0.00584066       0.00005302
Ti       0.03337449       2.35052892      12.18617800       0.00004780       0.00590082       0.00015907
Ti       1.46812232       4.55592163      13.46390659      -0.00019223       0.01404518      -0.00628428
Ti       4.40405780       4.45586994      13.46912296       0.00015836      -0.01790573      -0.00583196
Ti       4.40401820       0.39740677      13.69519695       0.00029113      -0.00258114       0.00916496
Al       1.46807834       0.46859221      13.74792186      -0.00041108       0.00437351       0.00868056
Ti       0.01479762       2.48238026      14.98355060       0.00474205       0.00825898       0.00323000
Ti       2.92133755       2.48242414      14.98353775      -0.00485025       0.00809190       0.00326816
Ti       5.83907793       5.89434629      15.56615424       0.00460343      -0.01364409      -0.01137119
Ti       2.96903486       5.89430701      15.56615995      -0.00462001      -0.01364724      -0.01143809
Ti       4.40406263       3.90376939      16.87960152       0.00004511      -0.00613681      -0.00419754
Ti       1.46804286       3.93214480      16.84796192      -0.00017750       0.00987797      -0.00238166
Ti       4.40405221       1.07252266      17.09732093       0.00007255      -0.00973143      -0.00960097
Ti       1.46804225       1.08036809      17.07788089      -0.00010828       0.00038285      -0.00336170
Ti       5.86824803       5.85514422      18.39706707       0.00045954      -0.00497856      -0.01237512
Ti       2.93980750       5.85513581      18.39706884      -0.00040936      -0.00499185      -0.01242719
Ti       2.92406304       2.79384521      19.00947012      -0.00080856      -0.00104279      -0.00538178
Ti       0.01201717       2.79382624      19.00946589       0.00079421      -0.00100284      -0.00534163
Ti       4.40402202       0.67282204      20.16996202       0.00002888      -0.00345981      -0.00313229
Ti       1.46804096       0.67195800      20.15604887      -0.00006655      -0.00317201      -0.00189511
Ti       1.46801876       4.73996192      20.64513430       0.00000671      -0.00666079      -0.00157212
Ti       4.40399776       4.73353350      20.64486687       0.00009625      -0.00500908      -0.00038800
Ti       2.93432550       2.58315297      21.82766759       0.00089772       0.00109035      -0.00138931
Ti       0.00172296       2.58315991      21.82764856      -0.00097865       0.00110587      -0.00123995
Ti       2.93601862       6.53857707      22.42628289       0.00026821      -0.00192421       0.00142892
Ti       5.87195618       6.53855458      22.42628587      -0.00011023      -0.00179203       0.00137423
Ti       4.40398570       4.38110496      23.61248940       0.00005085       0.00026325       0.00172061
Ti       1.46800151       4.38146955      23.61256207      -0.00001319       0.00041728      -0.00025282
Ti       4.40400341       1.55934780      24.09230696       0.00001117       0.00213452      -0.00144911
Ti       1.46801023       1.56155930      24.09363901      -0.00001858       0.00258068      -0.00166011
Ti       2.93420468       6.32375365      25.25094819      -0.00090240       0.00005529      -0.00076180
Ti       0.00176643       6.32377233      25.25094260       0.00100475       0.00002729      -0.00069132
Ti       5.87072578       3.27923456      25.86160013       0.00078695       0.00134628       0.00099602
Ti       2.93729198       3.27924662      25.86163936      -0.00082133       0.00130164       0.00095257
Ti       1.46801256       1.15093928      27.17801325      -0.00001150       0.00301668       0.00140157
Ti       4.40400190       1.15296385      27.17868235      -0.00001072       0.00248841       0.00055816
