64
Lattice="5.872 0.0 0.0 0.0 6.890708 0.0 0.0 0.0 27.394398" Properties=species:S:1:pos:R:3:forces:R:3 job_name=T1g-Cu-Cu-33-d-0.00 GB_type=T1g element=Cu system=Cu-33-d-0.00 distance=0.0 energy=-491.32615456 stress_kbar_3x3="_JSON [[-11.58615495, 6.71e-06, -0.00036819], [6.76e-06, -15.05695902, 2.66718592], [-0.00036819, 2.66718591, -24.54954541]]" pbc="T T T"
Ti       4.40399016       5.24702175      27.36990662       0.00006268       0.00175566      -0.01109764
Ti       1.46802168       5.24652819      27.36807269      -0.00009559       0.00242422      -0.01132325
Ti       5.87009891       3.23523833       1.29525865      -0.00025791       0.01557696      -0.00128324
Ti       2.93788769       3.23524252       1.29524204       0.00027120       0.01554532      -0.00130814
Ti       0.00564018       6.62180982       1.91985485       0.00097394      -0.01268178      -0.00207659
Ti       2.93034827       6.62180642       1.91984041      -0.00077578      -0.01276673      -0.00198980
Ti       4.40395791       1.76969769       3.18462853       0.00015459      -0.00482204      -0.00719431
Ti       1.46802743       1.77343143       3.19004235      -0.00013445      -0.00419589      -0.00856285
Ti       1.46801663       4.59406912       3.44706674      -0.00009157      -0.00348383       0.00599264
Ti       4.40399521       4.59592961       3.45262313       0.00006755      -0.00368996       0.00546580
Ti       5.86989223       6.73409442       4.74852493      -0.00064375      -0.00226637       0.00031209
Ti       2.93810656       6.73410316       4.74848291       0.00063681      -0.00227456       0.00048340
Ti       2.93872642       2.84932606       5.35977737       0.00005165      -0.00869916       0.00202050
Ti       5.86928337       2.84934531       5.35978665      -0.00005520      -0.00875215       0.00195694
Ti       4.40400136       4.98696831       6.51532163       0.00004850      -0.00930555       0.00126317
Ti       1.46802158       4.98866996       6.51020479      -0.00007423      -0.00842583       0.00084672
Ti       4.40399144       0.90850282       7.02249323       0.00001981      -0.00532850       0.00448007
Ti       1.46801194       0.91485837       7.00343174      -0.00003016      -0.00442736       0.00284621
Ti       2.93271717       3.08041920       8.19636945       0.00273945      -0.01136071      -0.00559221
Ti       0.00331360       3.08039776       8.19637240      -0.00280055      -0.01123966      -0.00559868
Ti       2.93532635       5.96966930       8.79685157       0.00297166      -0.00380580       0.00029949
Ti       0.00068096       5.96967744       8.79685020      -0.00292612      -0.00380878       0.00030885
Ti       4.40400657       1.22440929       9.99988877      -0.00004356      -0.01167113       0.00395747
Ti       1.46801691       1.26234744       9.91896331      -0.00001395      -0.01272309       0.00286050
Ti       4.40400336       4.04230687      10.45646256       0.00004221      -0.00621507      -0.00346039
Ti       1.46801383       4.07960178      10.51209633      -0.00007198      -0.00101461      -0.00185184
Ti       2.88561488       6.18644342      11.63262844       0.00232215       0.00286938       0.00023710
Ti       0.05035385       6.18643921      11.63264257      -0.00222854       0.00284839       0.00018085
Ti       2.88560103       2.29342298      12.18933505       0.00251228      -0.01604136       0.00406023
Ti       0.05043035       2.29343816      12.18934485      -0.00254509      -0.01609145       0.00398520
Ti       1.46802836       4.45802402      13.54183357      -0.00012203       0.00601508       0.00002082
Ti       4.40400961       4.33508895      13.56437148       0.00004494      -0.00237180      -0.00226592
Ti       4.40398357       0.27059580      13.60766539       0.00012424      -0.00328672      -0.00559815
Cu       1.46799270       0.39582465      13.63800681       0.00001754      -0.00191571      -0.00949256
Ti       0.04393222       2.27578041      14.95633358      -0.00090769      -0.01330803      -0.00083178
Ti       2.89210359       2.27576360      14.95634371       0.00089322      -0.01323139      -0.00096598
Ti       0.02689269       6.04915875      15.52886379      -0.00138540       0.01387729      -0.00276874
Ti       2.90913989       6.04916407      15.52886251       0.00136134       0.01391114      -0.00277961
Ti       4.40401822       3.91752746      16.73105087       0.00011883      -0.00113342       0.00312291
Ti       1.46804375       3.96905569      16.66231093      -0.00013649       0.00146826       0.00312094
Ti       4.40400740       1.09387257      17.12387103       0.00008365      -0.00124705      -0.00050466
Ti       1.46802941       1.12771977      17.19437069      -0.00008605       0.00076041       0.00090665
Ti       0.00153578       5.83253398      18.36276240      -0.00267551       0.00428397       0.00115468
Ti       2.93449257       5.83252497      18.36274302       0.00273727       0.00429039       0.00130111
Ti       2.92720296       2.90687188      18.96419594       0.00203800       0.00548120       0.00203703
Ti       0.00888067       2.90688553      18.96419434      -0.00211227       0.00544421       0.00198654
Ti       4.40403691       0.73084566      20.11996111      -0.00005789       0.00463982      -0.00464112
Ti       1.46801665       0.73285813      20.13040560       0.00005558       0.00818469      -0.00460037
Ti       1.46802221       4.79810564      20.65256550       0.00001748       0.00773255      -0.00234732
Ti       4.40403372       4.79696273      20.64088102       0.00000681       0.00445979      -0.00147911
Ti       2.93795898       2.62491868      21.80756138      -0.00005778       0.01072841      -0.00020207
Ti       5.87007814       2.62489726      21.80755907       0.00004529       0.01075541      -0.00020914
Ti       2.93790904       6.60235703      22.40764791       0.00081013       0.00216237       0.00454966
Ti       5.87013895       6.60235879      22.40766715      -0.00083471       0.00217455       0.00452521
Ti       4.40401956       4.42812858      23.59973650      -0.00012417       0.01185891       0.00810909
Ti       1.46800811       4.42600046      23.60809745       0.00004341       0.01243297       0.00691260
Ti       4.40402322       1.60929259      24.08423564      -0.00004703       0.00537534       0.00375893
Ti       1.46800020       1.61029011      24.08060150       0.00007265       0.00611942       0.00538303
Ti       2.93443369       6.37301812      25.24056573      -0.00023425       0.00407903       0.00060250
Ti       0.00159006       6.37303189      25.24057904       0.00020491       0.00396984       0.00066756
Ti       5.87109612       3.31020529      25.85692226       0.00021867       0.01146109       0.00031482
Ti       2.93691070       3.31021214      25.85691617      -0.00020880       0.01148631       0.00020272
Ti       1.46800377       1.18423311      27.19720126      -0.00008858       0.00421208       0.00637167
Ti       4.40397469       1.18652499      27.19781215       0.00009864       0.00320108       0.00341980
