64
Lattice="5.872 0.0 0.0 0.0 6.890708 0.0 0.0 0.0 27.394398" Properties=species:S:1:pos:R:3 job_name=T1g-Zr-Zr-40-d-3.41 GB_type=T1g element=Zr system=Zr-40-d-3.41 distance=3.41 energy=-495.84559388 pbc="T T T"
Ti       4.40394805       5.21264810       0.01707350
Ti       1.46782606       5.21274625       0.01480069
Ti       0.00047531       3.18896281       1.29311078
Ti       2.93539895       3.18898915       1.29297727
Ti       5.87169852       6.63859582       1.90541322
Ti       2.93613180       6.63857762       1.90531994
Ti       4.40388322       1.77303502       3.18810090
Ti       1.46792652       1.77172897       3.18866694
Ti       1.46793468       4.60548465       3.39948168
Ti       4.40389099       4.60509796       3.39961388
Ti       5.87137322       6.72968428       4.71216344
Ti       2.93644751       6.72967322       4.71219617
Ti       2.93604651       2.89027716       5.30958048
Ti       5.87174184       2.89026964       5.30956542
Ti       4.40398912       5.02019341       6.46010032
Ti       1.46791102       5.01925480       6.46294773
Ti       4.40389944       0.95524118       6.93795788
Ti       1.46791332       0.95491394       6.93603057
Ti       2.93786965       3.12366530       8.11734099
Ti       5.87007710       3.12368031       8.11740550
Ti       2.93708535       6.05064139       8.71021491
Ti       5.87074545       6.05061100       8.71019590
Ti       4.40389960       1.33030541       9.87828280
Ti       1.46799525       1.32808338       9.86876206
Ti       4.40387595       4.15869329      10.37731933
Ti       1.46794004       4.15917031      10.37268575
Ti       2.93057936       6.32572526      11.54210299
Ti       0.00534131       6.32582377      11.54212128
Ti       2.93390547       2.38942643      12.13246601
Ti       0.00216431       2.38930924      12.13258459
Ti       1.46824132       4.56794618      13.34314294
Ti       4.40412647       4.57049962      13.36383178
Ti       4.40393397       0.49847215      13.73890534
Ti       1.46801208       0.49535352      13.77324436
Ti       0.00656302       2.61919481      14.91916141
Ti       2.92965996       2.61908711      14.91995101
Ti       0.05633921       5.75325961      15.54365466
Ti       2.88042595       5.75354626      15.54338468
Ti       4.40416874       3.90169858      16.97838727
Ti       1.46762381       3.79725791      16.98493802
Zr       4.40452184       0.98805212      17.03237138
Ti       1.46954409       0.97251408      17.01733187
Ti       0.04633879       5.76622788      18.46059055
Ti       2.89026972       5.76654429      18.46080949
Ti       2.93791768       2.76079858      19.09350814
Ti       5.87024763       2.76098173      19.09418899
Ti       4.40381980       0.62816099      20.24253950
Ti       1.46801072       0.62778802      20.18756454
Ti       1.46816634       4.71691457      20.70079741
Ti       4.40408543       4.71916289      20.68952010
Ti       2.93315241       2.55864241      21.88145493
Ti       0.00281096       2.55862614      21.88144050
Ti       2.92987226       6.52731713      22.47276638
Ti       0.00598456       6.52731104      22.47276785
Ti       4.40387278       4.37204880      23.65116254
Ti       1.46793081       4.37257161      23.65850023
Ti       4.40385797       1.55771656      24.12947731
Ti       1.46796147       1.55407586      24.14305783
Ti       2.93730025       6.32140124      25.28690697
Ti       5.87042375       6.32134807      25.28689541
Ti       5.87082907       3.27647452      25.89011863
Ti       2.93697174       3.27646982      25.89023236
Ti       1.46787594       1.15389859      27.19458915
Ti       4.40387045       1.15397762      27.19048882
