64
Lattice="5.872 0.0 0.0 0.0 6.890708 0.0 0.0 0.0 27.394398" Properties=species:S:1:pos:R:3:forces:R:3 job_name=T1g-Zr-Zr-32-d-0.00 GB_type=T1g element=Zr system=Zr-32-d-0.00 distance=0.0 energy=-495.62312058 stress_kbar_3x3="_JSON [[-2.38720023, 0.00025595, 0.00171125], [0.00025593, -2.37318718, -1.36342733], [0.00171127, -1.36342733, -9.96339319]]" pbc="T T T"
Ti       4.40397555       5.09095857       0.11827959      -0.00013364       0.00063343      -0.00181522
Ti       1.46796875       5.09094491       0.11820372       0.00020215      -0.00128064       0.00151874
Ti       0.00028191       2.98977982       1.27781190      -0.00034617      -0.00223964       0.00455758
Ti       2.93570426       2.98976317       1.27782153       0.00028069      -0.00207428       0.00434568
Ti       0.00090003       6.75496431       1.88609870      -0.00146635      -0.00863511       0.00283514
Ti       2.93516529       6.75511627       1.88613488       0.00120216      -0.00948061       0.00243753
Ti       4.40396528       1.81612369       3.32977628       0.00008106      -0.00154941      -0.00336277
Ti       1.46807250       1.81618510       3.33006885      -0.00025042      -0.00420256      -0.00078630
Ti       1.46804046       4.65492671       3.26603665      -0.00000002      -0.00115753      -0.00066600
Ti       4.40404124       4.65606159       3.26483750      -0.00014491      -0.00179089       0.00001346
Ti       5.87131256       6.73061419       4.69820348       0.00003025      -0.00709568      -0.00325380
Ti       2.93673089       6.73059520       4.69823540      -0.00012024      -0.00695105      -0.00298824
Ti       2.93585781       3.09475963       5.31017809       0.00022602      -0.00304308       0.00037532
Ti       0.00020999       3.09484070       5.31034239      -0.00041348      -0.00408523      -0.00245900
Ti       4.40407997       5.16523029       6.50747151      -0.00047820      -0.00225573       0.00072819
Ti       1.46800008       5.16425868       6.51151213       0.00018152      -0.00174273       0.00088134
Ti       4.40404477       1.09789852       6.87257764      -0.00049096      -0.00341215       0.00097038
Ti       1.46798266       1.10001732       6.86260830       0.00030965      -0.00530045       0.00169325
Ti       2.93888478       3.24028129       8.10990946       0.00046250      -0.00214114       0.00168179
Ti       5.86923322       3.24000472       8.10973492      -0.00069971      -0.00028230       0.00499204
Ti       2.93899784       6.22436445       8.70416838      -0.00084774      -0.00060732      -0.00167527
Ti       5.86892450       6.22428365       8.70387844       0.00126645       0.00016173       0.00208040
Ti       4.40402073       1.46960504       9.88248486       0.00001942       0.00607840       0.00116497
Ti       1.46814607       1.47905969       9.85842744      -0.00069713      -0.00107338       0.00098255
Ti       4.40392110       4.29843744      10.36522864       0.00032839      -0.00449111      -0.00300174
Ti       1.46818086       4.29246140      10.35751729      -0.00063441       0.00519108      -0.00175149
Ti       2.90567698       6.43910907      11.49785275       0.00025342       0.00244137       0.00052999
Ti       0.03051787       6.43912868      11.49822174       0.00098648       0.00071483      -0.00689432
Ti       2.89611242       2.54147252      12.12567247       0.00015669       0.00548748      -0.00243697
Ti       0.03995999       2.54157526      12.12574896       0.00105917       0.00404321      -0.00456126
Ti       1.46799382       4.70764877      13.34157432       0.00050024       0.00152292      -0.00098031
Ti       4.40410170       4.60990228      13.36619155      -0.00179919       0.00583971       0.00089850
Zr       4.40488303       0.61951389      13.81004751      -0.00629812       0.00718369       0.00128331
Ti       1.46786724       0.61605349      13.80431933       0.00604713       0.00276156       0.00304376
Ti       0.05562162       2.77382766      15.00882004      -0.00103082       0.00648535       0.00730877
Ti       2.88040231       2.77421170      15.00927963       0.00324612       0.00064623       0.00053633
Ti       0.02387774       5.76129344      15.63904147      -0.00121896       0.00264451       0.00327094
Ti       2.91213079       5.76095986      15.63952347       0.00342353       0.00748042      -0.00510438
Ti       4.40407305       3.84021487      17.09785827      -0.00110739      -0.00194708       0.00072914
Ti       1.46805097       3.85553283      17.14534679      -0.00036370       0.00118354       0.00173483
Ti       4.40393982       1.01422146      17.02251491      -0.00059178       0.00512590      -0.00122586
Ti       1.46792070       1.03232185      16.95908899      -0.00044093       0.00742691      -0.00139131
Ti       5.86173301       5.86227372      18.44910274       0.00061143       0.00384343      -0.00046048
Ti       2.94603567       5.86226591      18.44861080      -0.00007898       0.00529013       0.00586614
Ti       2.93318040       2.53118995      19.06951600      -0.00077055      -0.00176575       0.00085492
Ti       0.00271383       2.53116958      19.06948564       0.00083318      -0.00184950       0.00107660
Ti       4.40393262       0.48195769      20.29195673      -0.00032257       0.00317567       0.00077998
Ti       1.46794203       0.48559055      20.28828213       0.00010810       0.00294504      -0.00012300
Ti       1.46790808       4.55550093      20.59328708       0.00011950      -0.00203195      -0.00426651
Ti       4.40391951       4.55199215      20.60181276      -0.00016197       0.00016795      -0.00536287
Ti       2.93320729       2.41895607      21.86472357       0.00060522       0.00169474      -0.00661337
Ti       0.00272824       2.41903312      21.86464645      -0.00085917       0.00102150      -0.00606662
Ti       2.93618207       6.31659725      22.46598790      -0.00015055       0.00181513      -0.00011762
Ti      -0.00031336       6.31669670      22.46597916       0.00005519       0.00132543      -0.00013247
Ti       4.40398800       4.18102280      23.61803465      -0.00020338      -0.00085684       0.00105944
Ti       1.46793516       4.18045612      23.61428585       0.00001479       0.00115673       0.00213693
Ti       4.40397552       1.36501319      24.10934082      -0.00014821      -0.00242655       0.00057077
Ti       1.46794065       1.36574480      24.11035213       0.00001104      -0.00251270       0.00087685
Ti       2.93503850       6.10406823      25.27560717       0.00079728      -0.00043703       0.00029060
Ti       0.00092756       6.10406311      25.27561020      -0.00101435      -0.00040957       0.00012734
Ti       0.00040394       3.16852519      25.87014425      -0.00023295      -0.00167018       0.00005424
Ti       2.93547771       3.16852700      25.87010645       0.00042567      -0.00166033       0.00033455
Ti       1.46804246       1.01787587      27.06965002      -0.00037877       0.00068341       0.00001829
Ti       4.40397383       1.01880546      27.06909261       0.00005130      -0.00371190       0.00285661
