64
Lattice="5.872 0.0 0.0 0.0 6.890708 0.0 0.0 0.0 27.394398" Properties=species:S:1:pos:R:3:forces:R:3 job_name=T1g-Al-Al-36-d-1.90 GB_type=T1g element=Al system=Al-36-d-1.90 distance=1.9 energy=-492.00023224 stress_kbar_3x3="_JSON [[-9.72318178, 0.00073884, -0.00056889], [0.00073887, -14.4125129, -2.07976791], [-0.00056892, -2.07976792, -15.4913891]]" pbc="T T T"
Ti       4.40321981       5.21442554      27.39086913      -0.00736100      -0.00076852      -0.00101102
Ti       1.46875638       5.21433641      27.39087429       0.00733237      -0.00066781      -0.00101187
Ti       5.87187258       3.18914774       1.28499225       0.00014356      -0.00016260      -0.00033303
Ti       2.93612934       3.18968545       1.28453947      -0.00006620      -0.00356039      -0.00743876
Ti       0.00016238       6.63611534       1.90200041      -0.00011365      -0.00200175      -0.00467745
Ti       2.93589318       6.63437994       1.90221454       0.00001468       0.00121308      -0.00590426
Ti       4.40484475       1.76912873       3.19187596       0.00055746      -0.00090436      -0.00391138
Ti       1.46704960       1.76921630       3.19191191      -0.00051325      -0.00098876      -0.00405669
Ti       1.46780014       4.59702004       3.40502101      -0.00006601       0.00043136      -0.00399265
Ti       4.40428553       4.59700158       3.40504384      -0.00005072       0.00052807      -0.00405627
Ti       5.87198598       6.72474619       4.71614697      -0.00005528       0.00057454      -0.00549568
Ti       2.93592026       6.72675983       4.71486208       0.00004416      -0.00019884      -0.00259247
Ti       2.93598298       2.87696111       5.32409465      -0.00000352       0.00244065      -0.00348012
Ti       5.87190976       2.87697381       5.32572878       0.00006483       0.00617462      -0.00383444
Ti       4.40115207       5.00989017       6.48506221       0.00186648       0.00318101      -0.00432795
Ti       1.47066958       5.00988235       6.48505879      -0.00170998       0.00321645      -0.00447915
Ti       4.40239101       0.93174265       6.95534287       0.00153106       0.01044924      -0.00079241
Ti       1.46951455       0.93174502       6.95533828      -0.00151840       0.01048086      -0.00073795
Ti       2.93593849       3.10261100       8.14316574       0.00002699       0.00994006      -0.00062930
Ti       5.87195356       3.10052661       8.14273883      -0.00001967       0.00673470       0.00011785
Ti       2.93595194       6.02020141       8.75014722      -0.00008463       0.01434834      -0.00315988
Ti       5.87194548       6.02108570       8.72708246       0.00012328       0.01615402       0.00742602
Ti       4.40407313       1.31178382       9.91592031      -0.00073654       0.00336781       0.00095207
Ti       1.46793359       1.31178960       9.91589240       0.00078761       0.00335195       0.00112135
Ti       4.39933449       4.11076366      10.41065578       0.00124519       0.00982447      -0.00370491
Ti       1.47260162       4.11077472      10.41068719      -0.00118389       0.00981628      -0.00383952
Ti       2.93603766       6.27290641      11.54883098      -0.00000256      -0.00043580       0.00433521
Ti       0.00003300       6.28358312      11.50967417      -0.00006145       0.00545505       0.00655005
Ti       2.93603819       2.39791978      12.17488153       0.00000486       0.00213966      -0.01038429
Ti       0.00006386       2.39740802      12.17456214      -0.00012636       0.00382993      -0.00490458
Ti       1.46534006       4.54092594      13.47100651       0.00087536      -0.00419680       0.00340145
Ti       4.40688350       4.54091640      13.47097368      -0.00085423      -0.00412683       0.00339218
Ti       4.42932224       0.43606060      13.68530647       0.01048651      -0.00122686       0.00375216
Ti       1.44279926       0.43603006      13.68531556      -0.01052668      -0.00104922       0.00366918
Ti       0.00012777       2.46248698      14.99163222      -0.00014942       0.00244009       0.00328655
Ti       2.93607283       2.46948353      14.97842753       0.00006795      -0.00521273      -0.00456799
Al       0.00007137       5.93818258      15.59065752       0.00005873      -0.00015513       0.00029612
Ti       2.93607616       5.92865917      15.65950503      -0.00010787       0.00544514       0.00084270
Ti       4.38250853       3.91633049      16.89072547      -0.00369684      -0.00077897       0.00855359
Ti       1.48959459       3.91633201      16.89073922       0.00376665      -0.00077161       0.00848526
Ti       4.38820522       1.03499443      17.11831981      -0.00258906      -0.00554599       0.00536977
Ti       1.48399698       1.03499509      17.11830934       0.00251596      -0.00568168       0.00541966
Ti       0.00005728       5.81185102      18.40175313      -0.00004168      -0.01618883      -0.00277547
Ti       2.93605198       5.81680048      18.50167190      -0.00003094      -0.00827463      -0.01268719
Ti       2.93602814       2.76575693      19.01539792       0.00004125       0.00913087       0.00676004
Ti       0.00003920       2.82674155      18.97307232      -0.00006081      -0.00279109       0.01119320
Ti       4.43592416       0.66750195      20.18884231      -0.00969263      -0.01439523      -0.00178660
Ti       1.43604725       0.66748741      20.18883666       0.00977876      -0.01433760      -0.00175385
Ti       1.44910209       4.71528369      20.66530802       0.00926877      -0.00195616      -0.00182176
Ti       4.42294343       4.71528243      20.66530393      -0.00933254      -0.00195319      -0.00181394
Ti       2.93597067       2.57618678      21.85441545       0.00002809      -0.00975448       0.00161696
Ti       5.87196915       2.57195111      21.83288374       0.00015043      -0.00788304       0.00500614
Ti       2.93598335       6.53124156      22.41767481       0.00000313       0.00127929       0.01070658
Ti       5.87198459       6.54197805      22.44243433       0.00002596      -0.00352322      -0.00307354
Ti       4.40385028       4.37980621      23.61905557       0.00433068      -0.00373153       0.00441104
Ti       1.46814479       4.37979566      23.61906651      -0.00438348      -0.00374559       0.00439414
Ti       4.40480316       1.55954408      24.09922622       0.00688100      -0.00487750       0.00419994
Ti       1.46712262       1.55954580      24.09923004      -0.00672972      -0.00481262       0.00419039
Ti       2.93594750       6.32049893      25.24749382       0.00008427       0.00002498      -0.00027116
Ti       0.00002429       6.32469081      25.25952786      -0.00002989      -0.00547562       0.00664651
Ti       5.87197578       3.27992686      25.86275431       0.00003523      -0.00188872       0.00390181
Ti       2.93606312       3.28155661      25.86165592      -0.00009059      -0.00172480      -0.00654229
Ti       1.46856377       1.15324955      27.17565866       0.00342621       0.00188677      -0.00208718
Ti       4.40360593       1.15326265      27.17566328      -0.00357798       0.00188922      -0.00206092
