64
Lattice="5.872 0.0 0.0 0.0 6.890708 0.0 0.0 0.0 27.394398" Properties=species:S:1:pos:R:3:forces:R:3 job_name=T1g-Cu-Cu-47-d-6.48 GB_type=T1g element=Cu system=Cu-47-d-6.48 distance=6.48 energy=-491.32962981 stress_kbar_3x3="_JSON [[-12.38069361, 0.00098123, -7.306e-05], [0.00098125, -16.05575997, -2.1164975], [-7.306e-05, -2.11649755, -25.37589299]]" pbc="T T T"
Ti       4.40402889       4.98045136       0.09748223      -0.00005094      -0.01154728       0.00241668
Ti       1.46800290       4.98193705       0.10356365       0.00009458      -0.00814055      -0.00026791
Ti       5.86968110       2.83891639       1.25362884      -0.00057827      -0.01363186       0.00530693
Ti       2.93836526       2.83888842       1.25365629       0.00059987      -0.01352183       0.00522112
Ti       5.86966885       6.73516612       1.86362853       0.00015127      -0.00255389      -0.00050694
Ti       2.93835688       6.73518324       1.86365943      -0.00010787      -0.00257383      -0.00060437
Ti       4.40401343       1.76590150       3.44130803      -0.00002862      -0.00440508       0.00775336
Ti       1.46803286       1.76963232       3.43630312       0.00000228      -0.00504553       0.00679422
Ti       1.46800432       4.59077260       3.15460628       0.00003930      -0.01250768      -0.01121323
Ti       4.40400914       4.59275124       3.14913813      -0.00000019      -0.01344444      -0.00964065
Ti       0.00552118       6.60917102       4.69170287      -0.00010314      -0.01012037       0.00461174
Ti       2.93050322       6.60917323       4.69170996       0.00021449      -0.01020548       0.00462180
Ti       2.93750608       3.25338208       5.31660213       0.00085665       0.00791294      -0.00376207
Ti       5.87053304       3.25335205       5.31662187      -0.00084139       0.00801282      -0.00378508
Ti       4.40404302       5.25447609       6.64910634      -0.00000973       0.01025226       0.01090305
Ti       1.46799451       5.25424689       6.65119021      -0.00001867       0.00989635       0.01051009
Ti       4.40402483       1.19537198       6.79905842      -0.00000992       0.00569047      -0.01005458
Ti       1.46800554       1.19305229       6.79896028       0.00001303       0.00555070      -0.01010056
Ti       2.93682875       3.31437384       8.15034721       0.00012754       0.00597650      -0.00100935
Ti       5.87121141       3.31437653       8.15037830      -0.00011841       0.00593345      -0.00112875
Ti       2.93438297       6.38647153       8.76754605      -0.00037890       0.01443033      -0.00148604
Ti       0.00167496       6.38647923       8.76759506       0.00038788       0.01444918      -0.00157782
Ti       4.40400234       1.61849962       9.92328119       0.00006601       0.01199825       0.00248281
Ti       1.46803392       1.61976518       9.92668957      -0.00006014       0.01349322       0.00276035
Ti       4.40401338       4.43775866      10.40332511      -0.00008839       0.00703621       0.00087323
Ti       1.46803001       4.43565950      10.39594564       0.00000231       0.00698883       0.00171342
Ti       2.93786689       6.60906338      11.59873656      -0.00040655       0.00771679       0.00307566
Ti       5.87017277       6.60904552      11.59876561       0.00043148       0.00777832       0.00298469
Ti       2.93793387       2.63312221      12.19958203      -0.00062200       0.00867229      -0.00000990
Ti       5.87007184       2.63314617      12.19958898       0.00071139       0.00854903      -0.00015622
Ti       1.46800994       4.80468193      13.35542170      -0.00003818       0.00697618      -0.00551974
Ti       4.40400794       4.80257431      13.36582558       0.00000983       0.00781713      -0.00423479
Ti       4.40401654       0.73571039      13.88862819       0.00004366       0.00420723      -0.00044952
Ti       1.46801887       0.73813926      13.87767159      -0.00007885       0.00597748      -0.00193867
Ti       0.00814158       2.91102702      15.04285792      -0.00021761       0.00230951       0.00021961
Ti       2.92785174       2.91103298      15.04291101       0.00025501       0.00232401       0.00006004
Ti       0.00098830       5.83304888      15.64553894      -0.00153414       0.00555837      -0.00308829
Ti       2.93501510       5.83307306      15.64560153       0.00161632       0.00534958      -0.00330601
Ti       4.40398253       3.91601947      17.27737281      -0.00004912      -0.00119905       0.00224388
Ti       1.46806135       3.96904189      17.34528714      -0.00019368      -0.00595824       0.00312471
Ti       4.40398438       1.09324919      16.88400756       0.00018321       0.00393444      -0.00826302
Ti       1.46800380       1.12752036      16.81195886      -0.00015271       0.01101716      -0.00448513
Ti       0.02889371       6.04786536      18.47678932      -0.00323368       0.00977068       0.01015627
Ti       2.90700798       6.04779351      18.47669014       0.00329687       0.00992802       0.01054745
Ti       2.89104811       2.27022507      19.05042814       0.00291036      -0.00233664      -0.00509470
Ti       0.04489896       2.27016881      19.05060364      -0.00289421      -0.00213299      -0.00607442
Ti       4.40414284       0.26454158      20.40185382      -0.00098189      -0.00514127      -0.01083512
Cu       1.46790468       0.39036378      20.37046102       0.00105244      -0.00641783       0.00197819
Ti       1.46802740       4.45344475      20.46334051      -0.00010335       0.00228355      -0.00495086
Ti       4.40399019       4.32869932      20.44318894      -0.00004928       0.00220655      -0.00535109
Ti       2.88526071       2.28594186      21.81614888       0.00329871       0.00101705       0.00486766
Ti       0.05072403       2.28588535      21.81595176      -0.00323809       0.00153464       0.00588201
Ti       2.88734256       6.18164879      22.37324438      -0.00486050      -0.01588752       0.00535387
Ti       0.04856847       6.18175279      22.37309925       0.00500525      -0.01630347       0.00599781
Ti       4.40397486       4.03589417      23.54978783       0.00007778      -0.01396307       0.00244193
Ti       1.46809820       4.07124503      23.49272267      -0.00031132       0.00176670       0.00332710
Ti       4.40399464       1.21537418      24.00557450       0.00005807       0.00108633      -0.00192242
Ti       1.46804099       1.25624763      24.08664610      -0.00016077      -0.00871928       0.00014271
Ti       2.93569487       5.96166234      25.21011073      -0.00253262      -0.01034044      -0.00175425
Ti       0.00032947       5.96166210      25.21018888       0.00258834      -0.01017518      -0.00246443
Ti       0.00370600       3.07463124      25.81052938      -0.00002863      -0.00660446      -0.00417096
Ti       2.93233712       3.07466069      25.81048498       0.00010685      -0.00671869      -0.00403525
Ti       1.46801705       0.90938449      26.99901821      -0.00009258      -0.01463231       0.00468088
Ti       4.40404285       0.90205058      26.98061144      -0.00002648      -0.01117428       0.00018886
