64
Lattice="5.872 0.0 0.0 0.0 6.890708 0.0 0.0 0.0 27.394398" Properties=species:S:1:pos:R:3:forces:R:3 job_name=T1g-Cu-Cu-49-d-6.96 GB_type=T1g element=Cu system=Cu-49-d-6.96 distance=6.96 energy=-491.30749089 stress_kbar_3x3="_JSON [[-12.09638229, 0.00369859, -0.00078273], [0.00369862, -15.51184447, -4.83920466], [-0.00078272, -4.83920464, -24.82690926]]" pbc="T T T"
Ti       4.40408767       4.97233450      26.97734632       0.00005547      -0.00316115      -0.00387519
Ti       1.46816584       4.97297770      26.96895157      -0.00019311      -0.00504194      -0.00128802
Ti       0.00079687       3.09241628       1.26364832       0.00021507      -0.00780934       0.00044400
Ti       2.93539343       3.09240093       1.26379386      -0.00013480      -0.00794304       0.00061189
Ti       0.00108500       6.00019169       1.86108995      -0.00213620      -0.00086282       0.00241578
Ti       2.93514223       6.00019325       1.86101684       0.00204785      -0.00085419       0.00267915
Ti       4.40409073       1.29446899       3.04729656      -0.00001638      -0.00649958       0.00768011
Ti       1.46806047       1.29218033       3.04065472       0.00012689      -0.00533111       0.00618974
Ti       1.46811977       4.11715533       3.54506995       0.00010811      -0.00687354       0.00303805
Ti       4.40416326       4.11653272       3.54193301      -0.00022451      -0.00566644       0.00453303
Ti       5.87127941       6.26566021       4.70011709      -0.00065318      -0.00912882      -0.00138981
Ti       2.93686242       6.26562828       4.70005201       0.00049757      -0.00920845      -0.00149860
Ti       2.93592992       2.38089538       5.31009569      -0.00044599       0.00017574       0.00136948
Ti       0.00028632       2.38090048       5.31012521       0.00034843       0.00012898       0.00151351
Ti       4.40404003       4.52867308       6.59862582      -0.00002361      -0.00907544       0.00402659
Ti       1.46801596       4.52745964       6.59799303       0.00010013      -0.00826605       0.00441194
Ti       4.40401976       0.46248998       6.88105465       0.00010246      -0.00427474      -0.00720162
Ti       1.46807763       0.46305648       6.88293860      -0.00006937      -0.00438324      -0.00769782
Ti       2.93523215       2.51301822       8.13965291       0.00011667       0.00211986      -0.00300248
Ti       0.00077068       2.51301545       8.13964511      -0.00017325       0.00206091      -0.00311806
Ti       2.94040497       5.87156895       8.76377234       0.00060028      -0.00633207       0.01239481
Ti       5.86761486       5.87157464       8.76380623      -0.00056947      -0.00618179       0.01197871
Ti       4.40396882       1.04428424      10.24502687      -0.00008622      -0.00790652       0.00300547
Ti       1.46795939       1.04240704      10.24900656       0.00004668      -0.00811460       0.00362774
Ti       4.40392667       3.87135135      10.09765951       0.00000742       0.01254186       0.00112354
Ti       1.46806254       3.87381055      10.09395994       0.00001760       0.01207088       0.00030382
Ti       2.93406464       5.80954095      11.59789694       0.00076555      -0.00370851      -0.01274659
Ti       0.00184160       5.80955658      11.59797533      -0.00078001      -0.00372260      -0.01233802
Ti       2.93503943       2.75401649      12.21259396      -0.00038655       0.01493405      -0.00447720
Ti       0.00085045       2.75405344      12.21256768       0.00043994       0.01490334      -0.00411488
Ti       1.46789758       4.71533392      13.85916972      -0.00014402       0.00151513      -0.00341913
Ti       4.40398063       4.70748423      13.83993000       0.00020898      -0.00035254      -0.00215753
Ti       4.40394603       0.63102576      13.36805995       0.00000827       0.00280282      -0.00339722
Ti       1.46801168       0.63456149      13.37053199      -0.00016543       0.00130308      -0.00198955
Ti       5.86912149       2.54688095      15.04622894      -0.00125115       0.00907493       0.00136743
Ti       2.93880311       2.54664720      15.04622220       0.00126483       0.00905035       0.00193832
Ti      -0.00091843       6.54569236      15.64715292       0.00080095       0.00227095       0.00374904
Ti       2.93677275       6.54565607      15.64708364      -0.00057248       0.00269759       0.00442377
Ti       4.40388956       4.36529125      16.76134284       0.00006728       0.00834551      -0.00287666
Ti       1.46798390       4.40465160      16.84409019      -0.00013852       0.00181702       0.00170534
Ti       4.40387506       1.55276394      17.35725035      -0.00030711       0.00686594      -0.00042494
Ti       1.46796624       1.58826801      17.30663186       0.00044778       0.00233465       0.00197469
Ti       5.82048559       6.33431545      18.48043958       0.00310821       0.00677071      -0.00203891
Ti       2.98752405       6.33423729      18.48019061      -0.00266353       0.00784089      -0.00270271
Ti       2.98638861       3.35311201      19.03571476      -0.00662240      -0.00077755      -0.00026895
Ti       5.82145744       3.35303275      19.03577675       0.00677952      -0.00014106       0.00022109
Ti       4.40393750       1.19325726      20.37474201       0.00006355       0.00121632       0.00859544
Ti       1.46776538       1.31643255      20.40535382      -0.00010915       0.00712551       0.00631448
Ti       1.46792741       5.38152114      20.46913828      -0.00111126       0.00438978       0.01504418
Cu       4.40399054       5.25682187      20.51024176       0.00049746       0.00851525       0.00289070
Ti       2.97649728       3.37510693      21.80417883      -0.00216119      -0.00287293       0.01208549
Ti       5.83146711       3.37508791      21.80425978       0.00241004      -0.00246007       0.01111698
Ti       2.95432971       6.53044094      22.37756456      -0.00489032       0.00002012      -0.00276039
Ti       5.85358907       6.53046368      22.37742349       0.00548987      -0.00042037      -0.00326032
Ti       4.40411787       4.55556330      24.03037533      -0.00027055      -0.00053097      -0.00611274
Ti       1.46800094       4.59050471      23.96191160      -0.00003534      -0.00635409      -0.00838219
Ti       4.40413012       1.70934326      23.52338522      -0.00014026       0.01017001      -0.01016149
Ti       1.46794873       1.76512892      23.58873531      -0.00005074       0.00723358      -0.00972577
Ti       2.93750864       6.74547406      25.21302213      -0.00123621      -0.00282668      -0.00583857
Ti       5.87052388       6.74569657      25.21306362       0.00149116      -0.00308897      -0.00595886
Ti       5.86209595       2.79497275      25.81231149       0.00167610      -0.00179523      -0.00488226
Ti       2.94604705       2.79500221      25.81227765      -0.00168457      -0.00178702      -0.00517305
Ti       1.46813420       0.91311866       0.09135512      -0.00034822      -0.00319299       0.00119495
Ti       4.40409632       0.90914528       0.10374240      -0.00011500      -0.00334931       0.00031027
