64
Lattice="5.872 0.0 0.0 0.0 6.890708 0.0 0.0 0.0 27.394398" Properties=species:S:1:pos:R:3:forces:R:3 job_name=T1g-Cu-Cu-44-d-5.32 GB_type=T1g element=Cu system=Cu-44-d-5.32 distance=5.32 energy=-491.06088257 stress_kbar_3x3="_JSON [[-13.51291197, -0.00018637, 0.00015711], [-0.00018636, -16.87550612, -1.88506316], [0.00015713, -1.88506319, -20.81975533]]" pbc="T T T"
Ti       4.40693477       5.19147774       0.02653917       0.00039866      -0.00671585       0.01134445
Ti       1.46507183       5.19148861       0.02652804      -0.00037272      -0.00667400       0.01143488
Ti       0.00001408       3.13524370       1.25494556      -0.00003594      -0.01021125      -0.00305731
Ti       2.93599156       3.14095105       1.27025057       0.00003474      -0.01218796       0.00564281
Ti       0.00000646       6.70351177       1.88181632       0.00002325       0.01261844      -0.00280204
Ti       2.93601251       6.69965700       1.88544379      -0.00003713       0.01149188      -0.00493527
Ti       4.40796511       1.80451995       3.22884265      -0.00019381       0.00235287       0.00690939
Ti       1.46403776       1.80450991       3.22884401       0.00021989       0.00233442       0.00690789
Ti       1.46690323       4.63769195       3.35080440       0.00071829       0.00407643      -0.01161252
Ti       4.40512781       4.63769679       3.35080420      -0.00077589       0.00412009      -0.01160942
Ti       0.00001614       6.74978071       4.70896213      -0.00000707       0.00582333      -0.00384465
Ti       2.93600637       6.74965175       4.71183549       0.00000694       0.00530872      -0.00218801
Ti       2.93600401       2.95489632       5.32342158       0.00000535       0.00901052       0.00004982
Ti       0.00001391       2.95353073       5.32656492      -0.00002314       0.00713806      -0.00706106
Ti       4.40515198       5.07080222       6.48881969      -0.00230952       0.00684035       0.00021023
Ti       1.46686050       5.07080671       6.48882091       0.00228836       0.00677127       0.00015729
Ti       4.40503373       0.99592884       6.94755331      -0.00186380       0.00720948      -0.00411926
Ti       1.46698062       0.99590942       6.94755871       0.00183292       0.00735665      -0.00407952
Ti       2.93599484       3.16273220       8.14387067      -0.00000067       0.00510906      -0.00110332
Ti       0.00000976       3.16512644       8.14508284      -0.00001192       0.00608942       0.00533212
Ti       2.93599772       6.09052781       8.74741051       0.00008670       0.00570713       0.00284403
Ti       0.00000898       6.08994117       8.75031522      -0.00002201       0.00736200       0.00892815
Ti       4.40551062       1.37224033       9.91412103       0.00218900       0.00316526       0.00357288
Ti       1.46650903       1.37222699       9.91412040      -0.00221153       0.00330032       0.00360971
Ti       4.40576626       4.18368043      10.41886338       0.00253009       0.00476260      -0.00028365
Ti       1.46623192       4.18366983      10.41886203      -0.00256040       0.00471248      -0.00026334
Ti       2.93600388       6.35608935      11.57865818       0.00007103       0.00798274      -0.00091704
Ti       0.00001688       6.36242855      11.58774449      -0.00003184       0.00438870      -0.00476220
Ti       2.93601678       2.40055769      12.17880001      -0.00008255      -0.00273287       0.00033533
Ti       5.87197612       2.39772652      12.19993433       0.00015411      -0.00029137      -0.00392957
Ti       1.46721139       4.58009213      13.40210920      -0.00124538       0.00317920      -0.00103448
Ti       4.40483731       4.58011622      13.40210550       0.00124290       0.00313303      -0.00103749
Ti       4.40894487       0.48558508      13.83285276      -0.00074380       0.00350164       0.00030346
Ti       1.46307502       0.48559090      13.83285107       0.00079753       0.00349029       0.00030747
Ti       0.00001876       2.62789891      15.02088179       0.00001509       0.00181330       0.00170145
Ti       2.93603713       2.61956704      14.97794847      -0.00015145       0.00180477      -0.00434372
Ti       0.00002602       5.74208195      15.62037407      -0.00001323      -0.00482324      -0.00654515
Ti       2.93603094       5.74026114      15.63561970      -0.00004176      -0.00590891      -0.00260827
Ti       4.35608575       3.76252006      17.06873922       0.00249109      -0.00323968       0.00563544
Ti       1.51595669       3.76252186      17.06872908      -0.00246683      -0.00328751       0.00563053
Ti       4.38597247       0.99818128      17.03118469       0.00335653       0.00417568       0.00044974
Ti       1.48605774       0.99816417      17.03117903      -0.00327575       0.00425892       0.00044734
Ti       0.00001669       5.79984481      18.40968840      -0.00002773      -0.00744190       0.00439430
Ti       2.93602997       5.72839200      18.42534685       0.00001744      -0.00719436       0.00140949
Cu       2.93602251       2.73899202      19.07397389      -0.00005839       0.00065742       0.00389700
Ti       0.00000889       2.78208974      19.13663695       0.00005662      -0.00467771      -0.01494385
Ti       4.36953832       0.63309405      20.12100725       0.00258023      -0.00444182      -0.00400473
Ti       1.50248766       0.63309283      20.12100311      -0.00258265      -0.00436334      -0.00401988
Ti       1.43844795       4.65176072      20.63943652       0.00046212      -0.00223680      -0.00297829
Ti       4.43357773       4.65175776      20.63945645      -0.00045072      -0.00218216      -0.00303436
Ti       2.93600682       2.48011767      21.80444498       0.00001610      -0.00680223       0.00496537
Ti       0.00000995       2.50094282      21.90513983       0.00000967      -0.00698304       0.00440974
Ti       2.93600809       6.53910798      22.34270874       0.00003582      -0.00535110       0.00458798
Ti       0.00000662       6.47361625      22.37528544      -0.00000692      -0.00530145       0.00305384
Ti       4.38078911       4.34309209      23.58534311      -0.00209311      -0.00659939       0.00031590
Ti       1.49123486       4.34310323      23.58533928       0.00209189      -0.00664117       0.00027690
Ti       4.37771473       1.49558781      24.08895011      -0.00144642      -0.00516679       0.00247663
Ti       1.49429246       1.49558584      24.08894016       0.00146547      -0.00513704       0.00249787
Ti       2.93600289       6.24468426      25.23211829      -0.00003369      -0.01045878       0.00146294
Ti      -0.00000375       6.25737828      25.23479173      -0.00000750      -0.01247439       0.00477411
Ti       0.00001668       3.26410237      25.81719965      -0.00004503       0.00069881       0.00449013
Ti       2.93600184       3.27504461      25.84654973       0.00006232       0.00000109      -0.00347505
Ti       1.46789729       1.12844308      27.11008212       0.00039591      -0.00618125      -0.00499967
Ti       4.40410937       1.12843596      27.11010956      -0.00042574      -0.00603905      -0.00517347
