64
Lattice="5.872 0.0 0.0 0.0 6.890708 0.0 0.0 0.0 27.394398" Properties=species:S:1:pos:R:3:forces:R:3 job_name=T1g-Zr-Zr-35-d-1.29 GB_type=T1g element=Zr system=Zr-35-d-1.29 distance=1.29 energy=-495.67436895 stress_kbar_3x3="_JSON [[-2.42653308, -0.00054798, 0.00115038], [-0.00054798, -4.43778255, -0.19681294], [0.00115036, -0.19681293, -8.5235101]]" pbc="T T T"
Ti       4.40622223       5.21118625       0.00589844       0.00158347      -0.00053475      -0.00501924
Ti       1.46576535       5.21120883       0.00585938      -0.00157398      -0.00081587      -0.00494203
Ti       5.87197443       3.18733770       1.28307086       0.00003860       0.00059146      -0.00263445
Ti       2.93600153       3.18960766       1.28502147      -0.00001439      -0.00263013       0.00799443
Ti       5.87198571       6.63452297       1.89832587      -0.00002945      -0.00033560       0.00523135
Ti       2.93597646       6.63491742       1.89757988       0.00014008      -0.00023115       0.00226219
Ti       4.40283508       1.76586342       3.17753443      -0.00114799      -0.00043445       0.00735333
Ti       1.46916356       1.76586024       3.17747885       0.00107261      -0.00027375       0.00770107
Ti       1.46848629       4.59835283       3.39148912      -0.00003171      -0.00019604       0.00471984
Ti       4.40342210       4.59832661       3.39151603       0.00016030      -0.00001952       0.00442947
Ti       5.87195877       6.72116466       4.70152528       0.00021242      -0.00086091      -0.00355618
Ti       2.93598181       6.72390018       4.69895224      -0.00018919      -0.00143408       0.00007810
Ti       2.93597305       2.87887661       5.30572375      -0.00002944      -0.00212981      -0.00356826
Ti       5.87197542       2.87924149       5.29804715       0.00009336      -0.00180200      -0.00250096
Ti       4.39985965       5.00449654       6.45712931      -0.00008054       0.00290074      -0.00626943
Ti       1.47209008       5.00447744       6.45711452       0.00019208       0.00313090      -0.00625927
Ti       4.40058789       0.93388526       6.93086391      -0.00112419       0.00289583      -0.00329314
Ti       1.47137973       0.93386930       6.93090668       0.00095804       0.00285226      -0.00351703
Ti       2.93597543       3.09371030       8.11470106       0.00010075      -0.00272374      -0.00117236
Ti       5.87198742       3.08875372       8.10150744       0.00007372       0.00166426      -0.00089032
Ti       2.93596477       6.02636274       8.71766472       0.00007550       0.00430800      -0.00563634
Ti       5.87197612       6.02868700       8.68875685       0.00000251       0.00207407       0.00333645
Ti       4.40894924       1.29968441       9.89083072      -0.00121311      -0.00168420      -0.00499201
Ti       1.46310105       1.29966671       9.89080268       0.00106725      -0.00161587      -0.00479594
Ti       4.40452334       4.10693652      10.35720383       0.00144162      -0.00038147      -0.00360940
Ti       1.46746064       4.10695125      10.35717193      -0.00140884      -0.00047224      -0.00338424
Ti       2.93605577       6.23931461      11.52429429      -0.00014696       0.00738675      -0.00083119
Ti       0.00001153       6.24746862      11.47409024       0.00006874       0.00526489      -0.00271945
Ti       2.93598168       2.39690042      12.09212896       0.00011079      -0.00521592       0.00862941
Ti       0.00004637       2.39861703      12.14612578      -0.00013610      -0.00548199       0.01908866
Ti       1.43944538       4.55547133      13.42346937      -0.00093322      -0.00182872       0.00801211
Ti       4.43260308       4.55543934      13.42346315       0.00103268      -0.00148759       0.00802354
Ti       4.46840403       0.43288495      13.62296466       0.00175266       0.00652909       0.01370508
Ti       1.40367912       0.43283166      13.62296610      -0.00167375       0.00696756       0.01366132
Ti       0.00001919       2.47725074      15.00612432       0.00017122      -0.00425540       0.00019424
Zr       2.93606319       2.47517694      15.03025907      -0.00055792      -0.00354588      -0.00947422
Ti       0.00007446       5.93729251      15.63140066      -0.00005415       0.00345837      -0.01712786
Ti       2.93603963       5.91282744      15.56026841      -0.00002444       0.00441277      -0.00387464
Ti       4.48174730       3.92693751      16.97738759       0.00581552      -0.00302942       0.00045017
Ti       1.39030263       3.92692010      16.97739136      -0.00565882      -0.00293978       0.00047218
Ti       4.44820734       1.05238717      17.18010374       0.00574394       0.00140465      -0.00009427
Ti       1.42386887       1.05242104      17.18011585      -0.00584026       0.00110830      -0.00002140
Ti       0.00000561       5.83520912      18.48440151       0.00013190       0.00453157      -0.00190418
Ti       2.93603290       5.85040047      18.43200771      -0.00003621      -0.00130986      -0.00177014
Ti       2.93604069       2.79364430      19.03140188      -0.00002557       0.00287861      -0.00989995
Ti       0.00004789       2.77640808      19.10672452      -0.00003297       0.00128304      -0.01172811
Ti       4.38631388       0.66379315      20.22557188       0.00707736      -0.00516955      -0.00138356
Ti       1.48575273       0.66376987      20.22562383      -0.00709067      -0.00516802      -0.00161237
Ti       1.47542966       4.73133009      20.68992167      -0.00230877       0.00160111       0.00491562
Ti       4.39664204       4.73134864      20.68993539       0.00234638       0.00146341       0.00497846
Ti       2.93601573       2.57667251      21.85234858       0.00004054       0.00236425       0.01179764
Ti       0.00005310       2.58193332      21.89948867      -0.00017075       0.00279638       0.00126734
Ti       2.93603826       6.54048424      22.46894722       0.00002008      -0.00455014       0.00723041
Ti       0.00001504       6.52817472      22.46173769       0.00006100      -0.00094070      -0.00109077
Ti       4.39953676       4.37846219      23.64713837      -0.00079660      -0.00083905       0.00141399
Ti       1.47251895       4.37843425      23.64714156       0.00076243      -0.00071743       0.00141940
Ti       4.39710549       1.55681641      24.12186635      -0.00341284       0.00208205       0.00320526
Ti       1.47493116       1.55683739      24.12186588       0.00345563       0.00191820       0.00313639
Ti       2.93600957       6.32120949      25.27802361      -0.00001376       0.00032387      -0.00837254
Ti       0.00002704       6.32222338      25.27201965       0.00001743      -0.00475961       0.00473384
Ti       0.00000439       3.27619832      25.87137388       0.00000020      -0.00019603       0.00202297
Ti       2.93599187       3.27874511      25.88050590       0.00002549      -0.00399626      -0.01240691
Ti       1.46743187       1.15287374      27.18547981      -0.00054259      -0.00202644      -0.00555911
Ti       4.40457458       1.15289115      27.18550974       0.00045288      -0.00215901      -0.00555296
