64
Lattice="5.872 0.0 0.0 0.0 6.890708 0.0 0.0 0.0 27.394398" Properties=species:S:1:pos:R:3:forces:R:3 job_name=T1g-Zn-Zn-40-d-3.41 GB_type=T1g element=Zn system=Zn-40-d-3.41 distance=3.41 energy=-488.70013699 stress_kbar_3x3="_JSON [[-11.79320432, -9.742e-05, -0.00073717], [-9.747e-05, -11.97543091, 3.35482766], [-0.00073721, 3.35482763, -21.68024042]]" pbc="T T T"
Ti       4.40400105       5.21907028      27.36305487       0.00004665       0.00104319      -0.01164587
Ti       1.46795834       5.21743969      27.36084858      -0.00002096       0.00142471      -0.01040195
Ti       5.86889945       3.20698462       1.27752406      -0.00026039       0.00489070      -0.00445230
Ti       2.93906236       3.20696890       1.27753876       0.00025633       0.00483820      -0.00450454
Ti       0.00251454       6.60100922       1.89973160       0.00009815      -0.00667695      -0.00421563
Ti       2.93347057       6.60101240       1.89970122      -0.00012267      -0.00656038      -0.00405958
Ti       4.40397228       1.74821648       3.17088201      -0.00021061      -0.00273230      -0.00486972
Ti       1.46798877       1.74825146       3.17036858       0.00023141      -0.00245576      -0.00408013
Ti       1.46798217       4.57293049       3.42183056      -0.00001941      -0.00826949       0.00789132
Ti       4.40399754       4.57211917       3.42378491      -0.00000029      -0.00827977       0.00749368
Ti       0.00056128       6.70332161       4.72200935       0.00018311       0.00116245       0.00415189
Ti       2.93544538       6.70336133       4.72198162      -0.00024381       0.00120499       0.00399461
Ti       2.93768328       2.83495278       5.33424921      -0.00088134      -0.01128813       0.00252603
Ti       5.87029936       2.83499447       5.33429303       0.00089569      -0.01117508       0.00262048
Ti       4.40405944       4.96648585       6.49135782       0.00012337      -0.00441178      -0.00262589
Ti       1.46795680       4.96463960       6.49098453      -0.00007769      -0.00474343      -0.00204442
Ti       4.40397636       0.88905663       6.97931278       0.00005239      -0.00166958      -0.00190554
Ti       1.46800506       0.88955007       6.97193678       0.00006457      -0.00046836      -0.00233495
Ti       2.93566770       3.04002761       8.15943441       0.00057013      -0.00872219      -0.00806089
Ti       0.00038071       3.04010265       8.15941358      -0.00063088      -0.00877886      -0.00810082
Ti       2.93909543       5.97624142       8.76013536       0.00065884      -0.00139519      -0.00278835
Ti       5.86896362       5.97617698       8.76009732      -0.00068650      -0.00140794      -0.00267494
Ti       4.40395738       1.23593762       9.96442800       0.00015431      -0.00724208       0.00195521
Ti       1.46808918       1.22840305       9.94487716      -0.00013256      -0.00623014      -0.00072823
Ti       4.40405480       4.05144576      10.42135481       0.00009388      -0.00179176       0.00009804
Ti       1.46801758       4.04721083      10.40400525      -0.00007780      -0.00282559       0.00118024
Ti       2.93780862       6.14795267      11.57711991       0.00418914      -0.00280294       0.00649443
Ti       5.87024870       6.14790201      11.57708895      -0.00416684      -0.00291362       0.00649979
Ti       2.91749209       2.37907192      12.18921276       0.00333116      -0.00322243       0.00281266
Ti       0.01861862       2.37911170      12.18914955      -0.00333224      -0.00307931       0.00292608
Ti       1.46801879       4.45852055      13.55800813       0.00008353       0.00373771       0.00313643
Ti       4.40405190       4.44473755      13.64088676      -0.00009297       0.00391624       0.01000076
Ti       4.40399295       0.41498139      13.61156285      -0.00013502      -0.00646389       0.00017582
Ti       1.46804167       0.39911015      13.65064811       0.00022120      -0.00476411       0.00168941
Ti       0.04129276       2.39965910      15.02549828      -0.00335485       0.00271946       0.00391511
Ti       2.89473260       2.39961550      15.02544215       0.00346708       0.00261660       0.00402462
Ti       5.81230049       6.06603294      15.63080091      -0.01016674       0.00302476      -0.00773124
Ti       2.99581016       6.06608624      15.63078702       0.01010749       0.00307599      -0.00786599
Ti       4.40400703       3.90771714      16.79919109       0.00014841      -0.00223779      -0.00879595
Ti       1.46801411       4.04068352      16.75529984      -0.00009276      -0.00064080      -0.01109792
Zn       4.40401958       1.11883696      17.17543058       0.00008572       0.00188853      -0.00050153
Ti       1.46805372       1.19797892      17.23108064      -0.00007977       0.00529294      -0.00421432
Ti       5.85443635       5.88777102      18.40815786      -0.00469965       0.00092103       0.00031314
Ti       2.95357750       5.88779355      18.40816862       0.00473771       0.00093719       0.00032544
Ti       2.90590655       2.88563831      18.97353219       0.00365104       0.00353175      -0.00654885
Ti       0.03014240       2.88568990      18.97357747      -0.00376188       0.00339061      -0.00672649
Ti       4.40398000       0.73071950      20.14453370       0.00011414       0.00061163      -0.00092248
Ti       1.46803606       0.72060881      20.20109749      -0.00018070       0.00357246      -0.00152367
Ti       1.46801874       4.77911450      20.63840557      -0.00019213       0.00811275       0.00119759
Ti       4.40402648       4.80290892      20.60165138       0.00011198       0.00722215      -0.00215347
Ti       2.94771292       2.62671324      21.81638912       0.00371937       0.00533813       0.00400937
Ti       5.86030586       2.62675620      21.81630599      -0.00373849       0.00526811       0.00402085
Ti       2.94856880       6.57072704      22.41101061       0.00194428       0.00093173       0.00433076
Ti       5.85941086       6.57071004      22.41101587      -0.00187557       0.00094147       0.00410473
Ti       4.40402730       4.40921959      23.59629237      -0.00007162       0.00344837       0.00707680
Ti       1.46797947       4.40673968      23.61375350       0.00002619       0.00646850       0.00931833
Ti       4.40399611       1.58674413      24.07872475      -0.00014535       0.00949297       0.00623782
Ti       1.46800405       1.58111616      24.06595336       0.00012495       0.00745864       0.00543022
Ti       2.93473845       6.35232638      25.23735303      -0.00062582       0.00265803       0.00177460
Ti       0.00124495       6.35229576      25.23736454       0.00066160       0.00260732       0.00184224
Ti       5.87176041       3.28419936      25.84848379      -0.00144075       0.00125813       0.00138396
Ti       2.93622797       3.28419893      25.84842242       0.00137176       0.00110259       0.00161353
Ti       1.46798340       1.15902747      27.18411213       0.00003066       0.00819404       0.00475962
Ti       4.40399708       1.16092164      27.18641181      -0.00003815       0.00894559       0.00625003
