64
Lattice="5.872 0.0 0.0 0.0 6.890708 0.0 0.0 0.0 27.394398" Properties=species:S:1:pos:R:3:forces:R:3 job_name=T1g-Zn-Zn-30-d-0.22 GB_type=T1g element=Zn system=Zn-30-d-0.22 distance=0.22 energy=-488.72361575 stress_kbar_3x3="_JSON [[-10.95651324, 0.00065476, -0.00046895], [0.00065475, -11.56651551, -0.13464242], [-0.00046896, -0.13464239, -21.02337745]]" pbc="T T T"
Ti       4.40405565       5.12786815       0.10642386      -0.00001538       0.00442195      -0.00518727
Ti       1.46801404       5.12825147       0.10705646       0.00002905       0.00380786      -0.00743172
Ti       5.87072222       3.03225615       1.28403450      -0.00064432      -0.00738315       0.00280438
Ti       2.93734057       3.03222454       1.28398625       0.00050251      -0.00738488       0.00281150
Ti       0.00092310       6.75201250       1.90335353      -0.00043934       0.00310969       0.00440661
Ti       2.93513669       6.75202253       1.90334889       0.00044131       0.00313515       0.00460855
Ti       4.40389808       1.81968970       3.32215789      -0.00007270      -0.01329715       0.01021105
Ti       1.46809458       1.82029158       3.31907652       0.00010529      -0.01188230       0.01333944
Ti       1.46803754       4.66107520       3.31275458       0.00002236       0.00017609       0.00860083
Ti       4.40397504       4.65949903       3.31314097       0.00011266      -0.00028129       0.00844452
Ti       5.87179837       6.74513336       4.73192875       0.00140343       0.00569719       0.00051488
Ti       2.93619891       6.74512414       4.73192679      -0.00137110       0.00580866       0.00059795
Ti       2.93606163       3.03967054       5.35040022       0.00046493      -0.00823351       0.00015330
Ti      -0.00013292       3.03962081       5.35029241      -0.00041247      -0.00810888       0.00018035
Ti       4.40394369       5.12085356       6.54126892      -0.00003748       0.00193425      -0.00645655
Ti       1.46798779       5.12815962       6.52748551       0.00011954       0.00118372      -0.00762359
Ti       4.40397488       1.05489391       6.92908933       0.00001342       0.00405516      -0.01300062
Ti       1.46800720       1.05596386       6.95008277       0.00007437       0.00480047      -0.01094353
Ti       2.92280808       3.19957793       8.16551398      -0.00188087       0.00264816      -0.00307984
Ti       0.01319033       3.19956196       8.16543912       0.00188713       0.00259779      -0.00284413
Ti       2.92298671       6.16410968       8.76398596      -0.00158905       0.00143163       0.00193416
Ti       0.01302392       6.16414213       8.76405099       0.00152472       0.00145877       0.00166213
Ti       4.40403724       1.41059160       9.93703097      -0.00005558       0.00678752      -0.00283545
Ti       1.46800238       1.43730772       9.97475541       0.00006887       0.00666787       0.00001383
Ti       4.40400650       4.23785180      10.37264051      -0.00005733       0.00688225       0.00194707
Ti       1.46801041       4.24743126      10.43232546       0.00004961       0.00363372       0.00001589
Ti       2.96446566       6.39825399      11.60573793      -0.00045191       0.00071337       0.00320056
Ti       5.84361509       6.39825695      11.60574037       0.00046555       0.00076133       0.00313743
Ti       2.91982588       2.48991540      12.17066197      -0.00102209       0.00324591       0.00252469
Ti       0.01618360       2.48991695      12.17052411       0.00106625       0.00325263       0.00246350
Zn       1.46802901       4.60805988      13.38163779      -0.00000563       0.00547171      -0.00073522
Ti       4.40399078       4.68367369      13.32475300      -0.00018436       0.00373309       0.00466248
Ti       4.40399568       0.62943308      13.84545177      -0.00013253       0.00199880       0.00487045
Ti       1.46810060       0.50504998      13.80059060       0.00015812      -0.00298196       0.00496253
Ti       0.06210950       2.66835914      14.94996840       0.00337340       0.00443325       0.00206126
Ti       2.87388077       2.66834457      14.94990349      -0.00331944       0.00445696       0.00230189
Ti       5.83990519       5.82611860      15.55251196       0.00514453      -0.00819364       0.00086824
Ti       2.96813726       5.82609857      15.55247474      -0.00515596      -0.00813057       0.00085473
Ti       4.40400379       3.82596706      16.96057715       0.00005940       0.00355267       0.00329750
Ti       1.46797264       3.84177004      17.00878519      -0.00002360       0.00437173       0.00407607
Ti       4.40395378       0.98895418      17.00732705       0.00006397      -0.00389061       0.00140503
Ti       1.46796522       0.97688583      16.91222686       0.00000843      -0.00052024      -0.00290212
Ti       5.84968197       5.80511792      18.39267262       0.00313632      -0.00711335      -0.00261764
Ti       2.95830205       5.80513574      18.39272517      -0.00313830      -0.00711060      -0.00278540
Ti       2.93540286       2.63041901      19.00862916      -0.00435204       0.00199358      -0.00245673
Ti       0.00054041       2.63041501      19.00872445       0.00440525       0.00195595      -0.00263658
Ti       4.40404515       0.53256232      20.19499141       0.00006709      -0.00694175      -0.00176354
Ti       1.46797616       0.53762468      20.18028482      -0.00007948      -0.00696534      -0.00459681
Ti       1.46797515       4.60785482      20.60305052      -0.00009121      -0.00263577      -0.00524706
Ti       4.40400307       4.60102779      20.62645757       0.00006154      -0.00232573      -0.00769066
Ti       2.93242154       2.45068088      21.82639905      -0.00036945       0.00316303      -0.00505318
Ti       0.00358609       2.45064259      21.82636490       0.00041769       0.00328811      -0.00504519
Ti       2.93640528       6.39617928      22.42763856       0.00069626      -0.00537619      -0.00119824
Ti       5.87166946       6.39621761      22.42761568      -0.00082111      -0.00550344      -0.00114216
Ti       4.40397643       4.23906707      23.59842352      -0.00002555       0.00249037       0.00190731
Ti       1.46806574       4.23839351      23.59022509       0.00003866       0.00295960       0.00317604
Ti       4.40401230       1.41924273      24.10143123      -0.00009698       0.00196947       0.00114575
Ti       1.46807648       1.42209156      24.10114625      -0.00000358      -0.00061103       0.00185122
Ti       2.93486323       6.15310602      25.26075757       0.00055604       0.00189181      -0.00223534
Ti       0.00123014       6.15310005      25.26086287      -0.00057716       0.00197519      -0.00227221
Ti       0.00031873       3.20954319      25.86436932      -0.00094236      -0.00044452      -0.00093613
Ti       2.93576050       3.20955444      25.86426181       0.00083083      -0.00030706      -0.00102378
Ti       1.46807900       1.05334032      27.08175153      -0.00000097      -0.00035345       0.00160630
Ti       4.40401707       1.05429022      27.08305920       0.00000085      -0.00194007      -0.00087875
