64
Lattice="5.872 0.0 0.0 0.0 6.890708 0.0 0.0 0.0 27.394398" Properties=species:S:1:pos:R:3:forces:R:3 job_name=T1g-Zn-Zn-36-d-1.90 GB_type=T1g element=Zn system=Zn-36-d-1.90 distance=1.9 energy=-488.78202657 stress_kbar_3x3="_JSON [[-11.28803514, -0.00026278, 7.943e-05], [-0.00026279, -15.42148184, -0.61772811], [7.942e-05, -0.61772813, -17.11623235]]" pbc="T T T"
Ti       4.39731925       5.21417277      27.39006409      -0.00030385       0.00283127       0.00055584
Ti       1.47467549       5.21417550      27.39005656       0.00030828       0.00284321       0.00057480
Ti       0.00001197       3.19072042       1.28406557       0.00001526      -0.00115844      -0.00293954
Ti       2.93597226       3.18748911       1.28025812      -0.00004927      -0.00201285      -0.00137249
Ti       5.87198500       6.63546532       1.89795878       0.00002440       0.00456767       0.00074943
Ti       2.93601716       6.63693242       1.90235401      -0.00008664       0.00481037       0.00015446
Ti       4.40515402       1.77091125       3.19066041       0.00055071       0.00255637       0.00240287
Ti       1.46682313       1.77090566       3.19065630      -0.00056506       0.00257479       0.00241136
Ti       1.46830964       4.59862915       3.40306526      -0.00006896       0.00353018      -0.00021305
Ti       4.40365227       4.59863609       3.40305337       0.00006992       0.00353851      -0.00023107
Ti       5.87197279       6.72747104       4.71369905       0.00012960       0.00267449       0.00246888
Ti       2.93597674       6.72928741       4.71612149      -0.00003862       0.00343841       0.00333799
Ti       2.93596577       2.88228658       5.32692362      -0.00004178       0.00457833       0.00436675
Ti      -0.00002385       2.88261546       5.32422931       0.00004484       0.00530239       0.00379451
Ti       4.40208534       5.01722375       6.48825148      -0.00133083       0.00244085      -0.00046298
Ti       1.46986299       5.01724826       6.48825540       0.00136278       0.00235525      -0.00047393
Ti       4.40285613       0.93896534       6.95888530      -0.00160636       0.00529617      -0.00128226
Ti       1.46908283       0.93896601       6.95888908       0.00179419       0.00522652      -0.00131386
Ti       2.93598850       3.11125209       8.14983064      -0.00004499       0.00041937       0.00224492
Ti      -0.00002125       3.10865779       8.14275122       0.00008121       0.00023899       0.00217276
Ti       2.93598061       6.02734195       8.75634263      -0.00001146       0.00012661       0.00335252
Ti      -0.00001979       6.02880469       8.73589640       0.00003866       0.00113436       0.00241293
Ti       4.40579152       1.31758345       9.92471621      -0.00061079      -0.00063965       0.00618556
Ti       1.46622937       1.31757034       9.92473056       0.00057692      -0.00055355       0.00613799
Ti       4.40284100       4.11052820      10.41868107      -0.00085220      -0.00330466       0.00501623
Ti       1.46915270       4.11054309      10.41868653       0.00085068      -0.00337583       0.00500482
Ti       2.93602877       6.26545728      11.56088323      -0.00000320      -0.01174528       0.00124271
Ti       0.00002057       6.27513896      11.52202234       0.00000357      -0.01020094       0.00011048
Ti       2.93601227       2.39117700      12.17724738      -0.00001752       0.00235188      -0.00475570
Ti       0.00001197       2.39247071      12.19661024       0.00000297       0.00125503      -0.00184976
Ti       1.46837110       4.52904375      13.48526515      -0.00143650      -0.00216717       0.00282533
Ti       4.40367803       4.52904168      13.48525821       0.00150044      -0.00218951       0.00285420
Ti       4.43866853       0.41919976      13.68435842       0.00345904      -0.01250276      -0.01446335
Ti       1.43340678       0.41920194      13.68433468      -0.00347157      -0.01265037      -0.01440787
Ti       0.00008269       2.43059070      15.00179017      -0.00008360      -0.00672761       0.00362977
Ti       2.93605568       2.43634705      14.96841994      -0.00007546       0.00092314       0.00607099
Zn       0.00004909       5.94559171      15.58681871      -0.00000978       0.00598233       0.00046130
Ti       2.93604221       5.98192665      15.67233792       0.00004004       0.00112085      -0.00057046
Ti       4.37195879       3.92292040      16.85473558       0.00180997       0.00227461      -0.00653502
Ti       1.50017067       3.92291170      16.85474039      -0.00191508       0.00236482      -0.00659472
Ti       4.37352327       1.04519599      17.14205189       0.00051981       0.00574790       0.00983630
Ti       1.49857075       1.04519839      17.14207227      -0.00070000       0.00575104       0.00979144
Ti       0.00003487       5.78136407      18.39921122       0.00000403      -0.00765857      -0.00167841
Ti       2.93604041       5.79559780      18.49055198       0.00002093      -0.00609775      -0.00222230
Ti       2.93605986       2.77925439      19.00564791       0.00000581       0.00779496      -0.00726177
Ti       0.00005957       2.84673319      18.94865668      -0.00002227       0.00729783      -0.00497309
Ti       4.43725598       0.66619612      20.17819745       0.00277477       0.00222302       0.00270003
Ti       1.43480346       0.66619920      20.17819684      -0.00273364       0.00222510       0.00275642
Ti       1.44786811       4.71343775      20.66361222      -0.00347004      -0.00158453       0.00469549
Ti       4.42421137       4.71343841      20.66361264       0.00347259      -0.00157296       0.00466301
Ti       2.93601820       2.56948697      21.85392965      -0.00000813       0.00005959      -0.00128445
Ti       0.00001657       2.56058457      21.82677927       0.00001459       0.00014611      -0.00197731
Ti       2.93601624       6.53555621      22.41165530      -0.00001155      -0.00222385       0.00224599
Ti       0.00001484       6.54780783      22.43846983       0.00003333      -0.00069372      -0.00094570
Ti       4.40606359       4.37896270      23.61436161       0.00172914       0.00047002      -0.00263344
Ti       1.46593005       4.37895438      23.61436898      -0.00170008       0.00050935      -0.00266841
Ti       4.40774150       1.55792372      24.10022169       0.00090656      -0.00419724      -0.00257896
Ti       1.46426947       1.55793358      24.10022676      -0.00088226      -0.00423290      -0.00258687
Ti       2.93600270       6.31983263      25.24313213      -0.00004543      -0.00265638      -0.00347934
Ti      -0.00001273       6.32178065      25.25978033       0.00005435      -0.00220833      -0.00338690
Ti       5.87199584       3.27966366      25.86294753       0.00002233       0.00001757      -0.00399535
Ti       2.93599039       3.28251534      25.85635554      -0.00001253       0.00022096      -0.00218696
Ti       1.47028110       1.15341757      27.17255884      -0.00005338      -0.00345594      -0.00293391
Ti       4.40169177       1.15341185      27.17255786       0.00004108      -0.00340939      -0.00296884
