64
Lattice="5.872 0.0 0.0 0.0 6.890708 0.0 0.0 0.0 27.394398" Properties=species:S:1:pos:R:3:forces:R:3 job_name=T1g-Cu-Cu-38-d-3.19 GB_type=T1g element=Cu system=Cu-38-d-3.19 distance=3.19 energy=-491.32472313 stress_kbar_3x3="_JSON [[-12.02728273, -0.00041055, -0.00013349], [-0.00041052, -15.68029838, -3.00598653], [-0.00013354, -3.00598652, -25.10493636]]" pbc="T T T"
Ti       4.40401697       5.22361028      27.38509483      -0.00010665      -0.00530471       0.00820812
Ti       1.46798590       5.21920581      27.39099794       0.00009670      -0.00424121       0.00719828
Ti       5.86608388       3.18763123       1.26502457       0.00085746      -0.00366209       0.00691398
Ti       2.94189078       3.18764992       1.26497978      -0.00079819      -0.00372163       0.00696470
Ti       0.00179919       6.67199241       1.89203798       0.00025648       0.00473487       0.00030878
Ti       2.93419555       6.67201117       1.89202901      -0.00030054       0.00464828       0.00017889
Ti       4.40400052       1.79949608       3.20241302      -0.00001876       0.00019093       0.00826466
Ti       1.46799559       1.79900474       3.20031378      -0.00001440       0.00236294       0.00937560
Ti       1.46796615       4.62698426       3.39246883       0.00002090       0.00401396      -0.00760049
Ti       4.40398505       4.62586624       3.39224743      -0.00001997       0.00307916      -0.00872024
Ti       0.00074206       6.75723212       4.72611886      -0.00055174      -0.00124257      -0.00436581
Ti       2.93523394       6.75723022       4.72609260       0.00056186      -0.00126545      -0.00428071
Ti       2.93714883       2.91610552       5.34144019       0.00015177       0.01031336      -0.00395358
Ti       5.87083223       2.91608938       5.34144331      -0.00013878       0.01047631      -0.00410477
Ti       4.40401210       5.04887078       6.49976156      -0.00003344       0.00633279      -0.00221156
Ti       1.46799689       5.04669144       6.49790039       0.00002385       0.00850369      -0.00528552
Ti       4.40399715       0.97589037       6.97911738       0.00000662       0.00445042      -0.00727713
Ti       1.46799983       0.97809428       6.98530596       0.00000847       0.00474151      -0.00407123
Ti       2.93469490       3.15286669       8.17556570      -0.00112504       0.00615679      -0.00153931
Ti       0.00133365       3.15288182       8.17553733       0.00109265       0.00610356      -0.00142491
Ti       2.93497456       6.06725056       8.77474428      -0.00123958       0.00293926      -0.00125856
Ti       0.00105123       6.06724433       8.77471802       0.00121419       0.00293321      -0.00118510
Ti       4.40401732       1.35073810       9.93074324       0.00000360       0.00484091       0.00022436
Ti       1.46799549       1.34857707       9.93994882       0.00001293       0.00686406       0.00208894
Ti       4.40401437       4.17851830      10.45571127      -0.00000690       0.00089738      -0.00439431
Ti       1.46802354       4.17514066      10.46267187      -0.00005817       0.00043158       0.00277309
Ti       2.94403220       6.35134729      11.61815919       0.00503783      -0.00182792       0.00303364
Ti       5.86400072       6.35133808      11.61814628      -0.00504483      -0.00182967       0.00300287
Ti       2.93615468       2.38898103      12.21896973      -0.00042764      -0.00183282       0.00196907
Ti      -0.00016885       2.38896935      12.21897018       0.00048131      -0.00179933       0.00197261
Ti       1.46801121       4.53705285      13.45784939      -0.00000960       0.00065492       0.00743195
Ti       4.40400498       4.57253653      13.39122408       0.00001585       0.00843451      -0.00375604
Ti       4.40400663       0.52184466      13.91692644      -0.00000176      -0.00096702       0.00661557
Ti       1.46799991       0.47203799      13.85012575       0.00008094       0.00031834       0.00377584
Ti       5.84865621       2.60192924      15.05444989       0.00434944       0.00259409       0.00626047
Ti       2.95939917       2.60191159      15.05441777      -0.00431830       0.00240241       0.00625401
Ti       5.82767878       5.72212884      15.62430672      -0.00149991      -0.00239862      -0.00637613
Ti       2.98037774       5.72213545      15.62425620       0.00143445      -0.00227596      -0.00632140
Cu       4.40403708       3.84164725      16.94092149      -0.00014700      -0.00389733       0.00808026
Ti       1.46799841       3.71332593      16.97392107      -0.00009683      -0.00689606      -0.00507797
Ti       4.40404049       1.01228021      17.04264723       0.00005132       0.00406024      -0.00198913
Ti       1.46804763       0.89178775      17.01946644      -0.00010360       0.01100300      -0.00441374
Ti       5.82010418       5.73981335      18.39597010      -0.00193549      -0.00095262       0.00222750
Ti       2.98796528       5.73982820      18.39600366       0.00200398      -0.00096936       0.00231892
Ti       2.98638795       2.74250509      18.95193386      -0.00095891      -0.00788558      -0.00232944
Ti       5.82169158       2.74250899      18.95188894       0.00116208      -0.00772605      -0.00245395
Ti       4.40402908       0.63516835      20.07217993      -0.00011505      -0.00437424      -0.00349267
Ti       1.46804709       0.59877157      20.12801902       0.00002255      -0.00234692      -0.00000061
Ti       1.46803429       4.66991624      20.58329670      -0.00004183       0.00009776       0.00444897
Ti       4.40402726       4.70844617      20.66354662      -0.00000548       0.00348446       0.00612266
Ti       2.93527093       2.52763586      21.78777691       0.00286199      -0.00586583      -0.00517186
Ti       0.00080590       2.52766727      21.78778184      -0.00288065      -0.00594555      -0.00511817
Ti       2.93782314       6.52746414      22.38705806       0.00448768      -0.00372493      -0.00535697
Ti       5.87020511       6.52741874      22.38708286      -0.00447046      -0.00355025      -0.00532555
Ti       4.40402666       4.36566948      23.57889131       0.00001385      -0.00493765       0.00186410
Ti       1.46798549       4.35943600      23.55969817      -0.00001585      -0.00889501       0.00016395
Ti       4.40405018       1.54668021      24.07327807      -0.00007001      -0.00253425      -0.00237191
Ti       1.46799533       1.54363902      24.06913529       0.00004215      -0.00001612      -0.00337830
Ti       2.93295979       6.30264530      25.22348954       0.00006492      -0.00886027       0.00089484
Ti       0.00301931       6.30266952      25.22342630      -0.00001830      -0.00895263       0.00098322
Ti       0.00205927       3.29074427      25.83228285       0.00023351       0.00217507       0.00547748
Ti       2.93395371       3.29077326      25.83233365      -0.00022488       0.00210014       0.00543226
Ti       1.46796302       1.15677237      27.13726547       0.00005220      -0.00532377      -0.00457892
Ti       4.40397669       1.15554816      27.14153632       0.00009500      -0.00631648      -0.00164362
