64
Lattice="5.871999 0.0 0.0 0.0 6.890708 0.0 0.0 0.0 27.401158" Properties=species:S:1:pos:R:3:forces:R:3 job_name=T1m-Cu-Cu-39-d-2.03 GB_type=T1m element=Cu system=Cu-39-d-2.03 distance=2.03 energy=-491.07199073 stress_kbar_3x3="_JSON [[-13.76388658, -0.00051108, 0.00018998], [-0.00051107, -17.38501418, -0.07481557], [0.00018996, -0.07481553, -21.42027646]]" pbc="T T T"
Ti       2.94214360       0.10229666      27.39747972       0.00144348      -0.00266526       0.00092826
Ti       2.93718256       2.94196736      27.39250795       0.00124645      -0.00561704      -0.00205755
Ti       5.86587537       0.10230644      27.39744935      -0.00126452      -0.00284434       0.00093022
Ti       5.87086761       2.94194239      27.39255142      -0.00116187      -0.00548060      -0.00211275
Ti       4.40406014       5.02552085       1.40420863      -0.00004077       0.00461499       0.00408152
Ti       1.46801275       5.02597993       1.40812115       0.00001131       0.00504548       0.00260358
Ti       4.40405328       1.32402591       2.02804246      -0.00000988       0.00101837       0.00059934
Ti       1.46803474       1.32516190       2.02461724      -0.00009161      -0.00058527      -0.00377984
Ti       2.93717744       3.41430265       3.20720602      -0.00123272       0.00179440       0.00351581
Ti       5.87090395       3.41433551       3.20723314       0.00121000       0.00177125       0.00337332
Ti       2.93708931       6.23111141       3.61645187       0.00028886       0.00247111      -0.00308603
Ti       5.87094621       6.23109214       3.61647690      -0.00018808       0.00247581      -0.00313929
Ti       1.46800895       1.49526934       4.83736643       0.00001016       0.00422731      -0.00354949
Ti       4.40405062       1.49790346       4.83895154      -0.00004951       0.00349473      -0.00461320
Ti       1.46799043       4.44426345       5.44239928       0.00015900       0.00129718      -0.00486025
Ti       4.40404977       4.44362039       5.44651583      -0.00002819       0.00235914      -0.00465466
Ti       2.93760787       6.60749326       6.60672539      -0.00002220       0.00503084       0.00135586
Ti       5.87041286       6.60748447       6.60669186       0.00004003       0.00487030       0.00149717
Ti       2.93765833       2.52428513       7.10922370      -0.00025851       0.00083353       0.00330765
Ti       5.87033409       2.52429062       7.10923003       0.00035450       0.00089776       0.00322911
Ti       4.40398894       4.70246058       8.28119688       0.00012000       0.00225103       0.00075970
Ti       1.46801304       4.69641013       8.27094597      -0.00016054       0.00420606       0.00451643
Ti       4.40400402       0.72477911       8.89210762      -0.00003272      -0.00408767       0.00419475
Ti       1.46799041       0.72737223       8.87041842       0.00005378      -0.00342529       0.01082097
Ti      -0.00017867       2.90514285      10.07955345      -0.00030279      -0.00080424       0.00821363
Ti       2.93618772       2.90514312      10.07956085       0.00022065      -0.00084736       0.00817623
Ti       5.86770328       5.69749588      10.53758341       0.00195728       0.00218809       0.00294566
Ti       2.94028303       5.69751939      10.53760342      -0.00196359       0.00223990       0.00291168
Ti       1.46801165       0.94362748      11.66564413      -0.00003495      -0.00470148      -0.00379351
Ti       4.40398692       0.94894766      11.70811541       0.00003716      -0.00345771       0.00288919
Ti       1.46797800       4.03240583      12.32797977       0.00004936      -0.00933530      -0.01082927
Ti       4.40398861       4.03385131      12.31528635       0.00000954      -0.01053725      -0.00607326
Ti       2.89212720       2.04224814      13.77606157       0.00515332      -0.00685917       0.00567975
Ti       0.04390900       2.04220863      13.77609357      -0.00517977      -0.00666585       0.00558247
Ti       2.92236597       6.16879651      13.70329277       0.00267846       0.00271680       0.00584014
Ti       0.01357447       6.16872920      13.70327538      -0.00266038       0.00284444       0.00588391
Ti       4.40399425       4.07180088      15.10119469       0.00003683      -0.01105788       0.00157225
Ti       1.46799554       4.00909224      15.11840889      -0.00004299      -0.00295061       0.01579382
Ti       4.40400161       1.00319222      15.82575976       0.00002828      -0.00455823      -0.01684181
Cu       1.46802005       0.95668012      15.75615949      -0.00001309       0.00074542       0.00570509
Ti       2.90884577       5.74548218      16.83218033      -0.00371524       0.00644460      -0.00784531
Ti       0.02717380       5.74546856      16.83216367       0.00374693       0.00645688      -0.00784114
Ti       2.96998367       2.86903933      17.32427833      -0.01066876      -0.00051307       0.00123226
Ti       5.83800907       2.86901958      17.32434537       0.01070401      -0.00038941       0.00100334
Ti       4.40403203       0.70745308      18.60248473      -0.00011037       0.00143243       0.01048708
Ti       1.46797306       0.68857867      18.50673869       0.00008707      -0.00031041      -0.00112640
Ti       4.40401519       4.67540102      19.07779226       0.00004923      -0.00823914       0.00986344
Ti       1.46797916       4.73908666      19.04211766       0.00003928      -0.00156341       0.00548307
Ti       0.02224907       2.53673536      20.27963233      -0.00428618       0.00940706      -0.00335158
Ti       2.91376812       2.53676065      20.27966292       0.00434233       0.00933448      -0.00347146
Ti       0.02136144       6.57885916      20.79482639      -0.00055295       0.00054749      -0.00336929
Ti       2.91469505       6.57885738      20.79480547       0.00051871       0.00058177      -0.00335027
Ti       1.46800415       4.42383875      21.94197199       0.00005249      -0.00222718      -0.00562729
Ti       4.40405962       4.43301491      21.94687553      -0.00003011       0.00021301      -0.00092436
Ti       1.46802542       1.50137292      22.55042374       0.00001051       0.00523735       0.00099706
Ti       4.40402517       1.49084339      22.52301590       0.00004213       0.00222316      -0.01075513
Ti       2.93549510       6.23283938      23.76383528       0.00325028      -0.00092556      -0.00525038
Ti       0.00057261       6.23283331      23.76382585      -0.00327565      -0.00084892      -0.00515944
Ti       2.93531103       3.40811617      24.18453629       0.00202200      -0.00063096      -0.00663586
Ti       0.00078286       3.40809176      24.18453169      -0.00210575      -0.00045550      -0.00657369
Ti       4.40404054       1.31748582      25.35093999      -0.00010482      -0.00372337       0.00391379
Ti       1.46803730       1.32205962      25.36894391       0.00006307      -0.00315089      -0.00599196
Ti       4.40402014       5.03307785      25.97393182      -0.00001253       0.00241305      -0.00183963
Ti       1.46809019       5.02872033      25.97982015      -0.00043542       0.00577314      -0.00138344
