64
Lattice="5.871999 0.0 0.0 0.0 6.890708 0.0 0.0 0.0 27.401158" Properties=species:S:1:pos:R:3:forces:R:3 job_name=T1m-Zn-Zn-42-d-3.62 GB_type=T1m element=Zn system=Zn-42-d-3.62 distance=3.62 energy=-488.71980182 stress_kbar_3x3="_JSON [[-10.08444165, -0.00077069, -6.453e-05], [-0.00077067, -10.77504793, 0.42763115], [-6.451e-05, 0.42763115, -20.13704724]]" pbc="T T T"
Ti       2.93604692       0.09916443      27.39142835       0.00003187      -0.00221579       0.00670402
Ti       2.93604733       2.93632981      27.39047664      -0.00001162      -0.00576211       0.00614785
Ti       0.00002938       0.09749425      27.39005671      -0.00000999      -0.00157311       0.00599736
Ti       0.00004115       2.93474932      27.39117606       0.00004294      -0.00545389       0.00176631
Ti       4.40240968       5.02632126       1.40337628       0.00052916       0.00267552       0.00205660
Ti       1.46964863       5.02633669       1.40337839      -0.00054774       0.00257699       0.00194207
Ti       4.40535882       1.31833263       2.02275340      -0.00095902      -0.00592439      -0.00063622
Ti       1.46671054       1.31831609       2.02274872       0.00099234      -0.00585795      -0.00056911
Ti       2.93601911       3.41136558       3.20643754      -0.00007466      -0.00222824       0.00014486
Ti       0.00002950       3.41126738       3.20639498       0.00005988      -0.00266717       0.00051952
Ti       2.93601448       6.22773613       3.61698412       0.00001678      -0.00276403      -0.00079931
Ti       0.00003006       6.22871318       3.61619915      -0.00019293      -0.00361407      -0.00114294
Ti       1.46840231       1.49181211       4.83902670      -0.00078868      -0.00558002       0.00126866
Ti       4.40361357       1.49181621       4.83901158       0.00089631      -0.00563915       0.00134194
Ti       1.46941645       4.43862937       5.44485824       0.00062249      -0.00000733       0.00014342
Ti       4.40261451       4.43862993       5.44484232      -0.00064997       0.00011473       0.00024115
Ti       2.93600483       6.59550229       6.60370875       0.00001528       0.00021295       0.00175166
Ti       0.00001001       6.59351689       6.60441782      -0.00002015       0.00080022       0.00103525
Ti       2.93601282       2.51878441       7.11342944      -0.00007067      -0.00629344       0.00013490
Ti       0.00001400       2.51956016       7.10607570       0.00000165      -0.00640230       0.00051294
Ti       4.40449851       4.67448601       8.27652373       0.00019185       0.00281943       0.00191954
Ti       1.46749655       4.67447643       8.27652115       0.00003080       0.00299678       0.00197291
Ti       4.39999192       0.72730766       8.87920214      -0.00048288      -0.00562298      -0.00024521
Ti       1.47200932       0.72730781       8.87919951       0.00049093      -0.00561352      -0.00042560
Ti       0.00000114       2.87480455      10.07939984      -0.00010773       0.00175407       0.00019056
Ti       2.93598653       2.88238530      10.10043198       0.00003983       0.00001282       0.00139628
Ti       5.87199219       5.69645691      10.50855402      -0.00002874      -0.00039565       0.00108025
Ti       2.93599210       5.70082226      10.52469829       0.00002867       0.00168831      -0.00013132
Ti       1.47041473       0.90172808      11.69495259      -0.00327500      -0.00804567       0.00319158
Ti       4.40154963       0.90172841      11.69495596       0.00323559      -0.00802529       0.00319574
Ti       1.44544824       4.07698879      12.31212158      -0.00255056       0.00606142       0.00290552
Ti       4.42653200       4.07698029      12.31212427       0.00261058       0.00616095       0.00283463
Ti       2.93598591       2.11240223      13.69282525       0.00003963      -0.00126486       0.00403343
Ti       5.87199770       2.09489118      13.74133469      -0.00001968      -0.00003814       0.00215783
Ti       2.93598103       6.13890640      13.79423533       0.00002375       0.00185198       0.00438917
Ti       5.87197953       6.15016115      13.69642666       0.00001868       0.00228019       0.00358351
Ti       4.43621410       4.09455889      15.15216010       0.00454523       0.00541857      -0.00275992
Ti       1.43578289       4.09455681      15.15215880      -0.00452690       0.00544068      -0.00273591
Ti       4.34138596       0.94377236      15.75487665       0.00571159      -0.00150695      -0.00307035
Ti       1.53060628       0.94377415      15.75489797      -0.00572126      -0.00148573      -0.00318868
Ti       2.93601329       5.66796328      16.90073802       0.00005056       0.01841607       0.00458376
Ti       0.00000889       5.79640312      16.85336889      -0.00009459      -0.00058742       0.00303377
Zn       2.93601672       2.88296973      17.32469097      -0.00005000       0.00422525       0.00618504
Ti       0.00000779       2.96027684      17.38098152       0.00003631      -0.00377172      -0.00051467
Ti       4.38818442       0.76396504      18.53299672       0.00430366       0.00124897       0.00503921
Ti       1.48383576       0.76398107      18.53299761      -0.00426176       0.00116794       0.00515884
Ti       4.43288974       4.67670181      19.09790953       0.00292059       0.00962220       0.00490661
Ti       1.43914698       4.67669214      19.09789944      -0.00290616       0.00958798       0.00499874
Ti       0.00002010       2.51658523      20.33181259       0.00001773       0.00189280      -0.01329482
Ti       2.93602965       2.52562452      20.27198347      -0.00007290       0.00190067       0.00038857
Ti       0.00001736       6.58013001      20.76922219       0.00010050       0.00192026      -0.00526362
Ti       2.93603220       6.60776864      20.72961583      -0.00004202       0.00147438      -0.00455543
Ti       1.47996412       4.44212024      21.93942178       0.00155993       0.00710355      -0.00630307
Ti       4.39210025       4.44211348      21.93942469      -0.00158377       0.00700669      -0.00634233
Ti       1.48137636       1.47950398      22.53921752      -0.00139709      -0.00272153      -0.00832389
Ti       4.39069242       1.47948787      22.53921567       0.00126141      -0.00265800      -0.00824493
Ti       2.93604740       6.22492516      23.75301940      -0.00002957      -0.00192732      -0.00430319
Ti       0.00004947       6.22208866      23.77387213      -0.00002464       0.00081584      -0.00630278
Ti       2.93599160       3.40578390      24.17769501       0.00017934      -0.00007424      -0.01273866
Ti       0.00004095       3.39939046      24.16395896      -0.00005012       0.00111485      -0.00939663
Ti       4.40482000       1.31589451      25.35517272       0.00113299      -0.00573410      -0.00249310
Ti       1.46727830       1.31588777      25.35517480      -0.00117950      -0.00573794      -0.00244297
Ti       4.40395843       5.02322588      25.97230095       0.00160012       0.00339598       0.00374777
Ti       1.46811696       5.02323549      25.97230019      -0.00160868       0.00343502       0.00362291
