64
Lattice="5.871999 0.0 0.0 0.0 6.890708 0.0 0.0 0.0 27.401158" Properties=species:S:1:pos:R:3:forces:R:3 job_name=T1m-Zn-Zn-37-d-1.42 GB_type=T1m element=Zn system=Zn-37-d-1.42 distance=1.42 energy=-488.8074984 stress_kbar_3x3="_JSON [[-11.17271656, -2.714e-05, 0.00142478], [-2.716e-05, -15.35700562, 0.74020256], [0.00142477, 0.74020258, -18.22664843]]" pbc="T T T"
Ti       2.93136750       0.10444779      27.39756036      -0.00060438      -0.00117348       0.00315669
Ti       2.93570184       2.93973658       0.00161087      -0.00020089       0.00028164       0.00482841
Ti       0.00470172       0.10445937      27.39754682       0.00070184      -0.00101472       0.00322870
Ti       0.00031062       2.93975337       0.00162954       0.00026647       0.00003546       0.00479628
Ti       4.40405920       5.03238689       1.41302513      -0.00006059       0.00153081       0.00474400
Ti       1.46800163       5.02978796       1.41441115       0.00004088       0.00272944       0.00396421
Ti       4.40399576       1.31633853       2.03023384       0.00009653      -0.00113299       0.00106943
Ti       1.46803970       1.31881008       2.02838192      -0.00006976      -0.00278497       0.00193713
Ti       2.93974961       3.41120508       3.20884788      -0.00001588       0.00097228      -0.00078541
Ti       5.86829067       3.41118560       3.20882451      -0.00003028       0.00111151      -0.00076774
Ti       2.93822023       6.23066321       3.62287497       0.00029835      -0.00032394       0.00100097
Ti       5.86983297       6.23067514       3.62288728      -0.00037008      -0.00053801       0.00093334
Ti       1.46802109       1.49404409       4.84056335      -0.00003197       0.00041970       0.00039776
Ti       4.40400947       1.49709684       4.84683018      -0.00002630      -0.00318644      -0.00015816
Ti       1.46801408       4.44001297       5.43635914       0.00004288      -0.00004524      -0.00377423
Ti       4.40404091       4.43781827       5.45271573       0.00002672       0.00111778      -0.00160556
Ti       2.93231761       6.59510204       6.59952195      -0.00159663       0.00061388      -0.00077284
Ti       0.00369322       6.59510759       6.59952876       0.00146839       0.00048080      -0.00082449
Ti       2.93427278       2.52607072       7.11191866      -0.00174754      -0.00198651      -0.00128122
Ti       0.00173111       2.52603722       7.11189725       0.00181065      -0.00174098      -0.00112379
Ti       4.40396965       4.68033436       8.29265117       0.00018397       0.00030837       0.00204592
Ti       1.46799244       4.69236922       8.26600414      -0.00010690       0.00392076       0.00010589
Ti       4.40400705       0.73210385       8.84869481      -0.00005734      -0.00233019      -0.00019945
Ti       1.46799445       0.72018468       8.88441853      -0.00003752      -0.00471299      -0.00126112
Ti       0.02199441       2.86865142      10.07391862      -0.00162753      -0.00069529       0.00099674
Ti       2.91397665       2.86864594      10.07392582       0.00167465      -0.00066279       0.00089372
Ti       0.04237337       5.71533408      10.50924942      -0.00050244       0.00040342       0.00744203
Ti       2.89361245       5.71534176      10.50924296       0.00046659       0.00033809       0.00746767
Ti       1.46798351       0.96310163      11.74983086       0.00005199      -0.00267769       0.00223391
Ti       4.40399922       0.88632390      11.68563831       0.00008528      -0.00313061       0.00113484
Ti       1.46798249       4.03308167      12.30148686      -0.00005267      -0.00363606       0.00183687
Ti       4.40399652       4.05535566      12.21369803       0.00003076      -0.00003951       0.00947210
Ti       2.99242605       2.13939955      13.71996213      -0.00040150      -0.00437177       0.00065570
Ti       5.81555342       2.13939623      13.71997164       0.00037904      -0.00432556       0.00063102
Ti       2.95132958       6.13832377      13.69042062      -0.00349628      -0.00406173      -0.00467281
Ti       5.85669052       6.13835542      13.69043614       0.00347513      -0.00416248      -0.00483221
Ti       4.40400665       4.05113563      15.06423119      -0.00013459       0.00044216      -0.00568580
Zn       1.46799823       4.06621446      15.12970097       0.00004957      -0.00088517      -0.00450894
Ti       4.40399975       0.85969100      15.74226354      -0.00009627      -0.00247243      -0.00073520
Ti       1.46800886       0.93183136      15.71580353       0.00008750      -0.00649137      -0.00381149
Ti       2.89721078       5.68230734      16.90295036      -0.00068250       0.00100101      -0.00501548
Ti       0.03879415       5.68231374      16.90294274       0.00072471       0.00100202      -0.00495918
Ti       2.93310168       2.89304285      17.31871313       0.00077188      -0.00223418       0.00050612
Ti       0.00290474       2.89303758      17.31869785      -0.00077200      -0.00222788       0.00051238
Ti       4.40401676       0.73856215      18.52700058      -0.00006742       0.00287562       0.00378097
Ti       1.46801769       0.74589654      18.49725022       0.00010030      -0.00207562       0.00241671
Ti       4.40401780       4.69472392      19.12582518       0.00001964      -0.00103876       0.00261906
Ti       1.46801253       4.70509779      19.16730723       0.00003057      -0.00157021       0.00150704
Ti       5.87122705       2.52207771      20.27915278       0.00039337       0.00179016       0.00231586
Ti       2.93684429       2.52208170      20.27914932      -0.00033062       0.00173770       0.00240147
Ti       0.00332755       6.61352644      20.79846719      -0.00272249       0.00315111       0.00329084
Ti       2.93272564       6.61350759      20.79846334       0.00267565       0.00346932       0.00324669
Ti       1.46803370       4.44526923      21.96725352      -0.00001044       0.00590765      -0.00338129
Ti       4.40404613       4.44346820      21.94340584       0.00002717       0.00687549       0.00216835
Ti       1.46802589       1.50373883      22.56063094      -0.00005627       0.00122651      -0.00296925
Ti       4.40403501       1.50575655      22.55644647       0.00004427       0.00225667      -0.00224060
Ti       2.93786805       6.23559887      23.78388732       0.00040302       0.00345234      -0.00507487
Ti       5.87021801       6.23558236      23.78387531      -0.00041415       0.00333607      -0.00504889
Ti       2.93969750       3.42132314      24.18652403       0.00086964       0.00468614      -0.00755747
Ti       5.86839039       3.42130411      24.18653022      -0.00084037       0.00478537      -0.00746273
Ti       4.40404215       1.32485847      25.37248694      -0.00005129       0.00196978      -0.00597973
Ti       1.46806325       1.32569924      25.37203829      -0.00001135       0.00279002      -0.00395134
Ti       4.40404292       5.03135153      25.99000914       0.00001024       0.00090954       0.00091849
Ti       1.46802486       5.02955185      25.98932949      -0.00008139      -0.00019906      -0.00021603
