64
Lattice="5.871999 0.0 0.0 0.0 6.890708 0.0 0.0 0.0 27.401158" Properties=species:S:1:pos:R:3:forces:R:3 job_name=T1m-Cu-Cu-42-d-3.62 GB_type=T1m element=Cu system=Cu-42-d-3.62 distance=3.62 energy=-490.90207982 stress_kbar_3x3="_JSON [[-12.50610223, 0.0005437, -0.00014169], [0.00054371, -15.78072973, 0.80312672], [-0.0001417, 0.80312671, -23.41151528]]" pbc="T T T"
Ti       2.93603073       0.09905068      -0.01568499      -0.00001439       0.00030640       0.00278109
Ti       2.93605416       2.93509627      -0.01627748      -0.00002513       0.00060613       0.00115748
Ti       0.00002398       0.09803289      -0.01716804      -0.00000333       0.00012075       0.00210357
Ti       0.00005543       2.93380998      -0.01932342      -0.00001207       0.00041587       0.00199315
Ti       4.40200116       5.02635117       1.39752382       0.00010446      -0.00043388       0.00097234
Ti       1.47007567       5.02636051       1.39749310      -0.00009959      -0.00044591       0.00099467
Ti       4.40547777       1.31854734       2.01978347       0.00001725      -0.00109249       0.00057362
Ti       1.46656642       1.31854717       2.01980271      -0.00000680      -0.00110111       0.00050742
Ti       2.93599525       3.41287936       3.20566269       0.00000158      -0.00017901       0.00049644
Ti       0.00003051       3.41279082       3.20628885       0.00000673      -0.00026437       0.00015312
Ti       2.93602414       6.22663508       3.61538161      -0.00000179       0.00029550      -0.00042692
Ti       0.00004089       6.22702785       3.61429245      -0.00000276       0.00028968      -0.00040883
Ti       1.46863697       1.49216785       4.83962567       0.00013687      -0.00055608      -0.00056817
Ti       4.40337531       1.49214963       4.83963617      -0.00012703      -0.00053456      -0.00059794
Ti       1.47015341       4.44003867       5.44925390       0.00016924      -0.00053278      -0.00075159
Ti       4.40188154       4.44005090       5.44923671      -0.00016983      -0.00059293      -0.00078921
Ti       2.93601782       6.59842614       6.60848001      -0.00002657      -0.00072920      -0.00044548
Ti      -0.00000215       6.59471901       6.61052919       0.00000278      -0.00047442      -0.00105764
Ti       2.93601909       2.51878543       7.12080823      -0.00001098      -0.00033294      -0.00111997
Ti       0.00000346       2.51984073       7.10846795       0.00001133       0.00003123       0.00014527
Ti       4.40250586       4.67647674       8.28537321      -0.00080103      -0.00005550      -0.00085323
Ti       1.46950620       4.67649319       8.28542149       0.00078017      -0.00010749      -0.00090563
Ti       4.39836410       0.72627783       8.88863955      -0.00006425       0.00054019      -0.00042568
Ti       1.47363059       0.72627793       8.88869024       0.00007219       0.00055411      -0.00048745
Ti      -0.00000069       2.87395542      10.08106090      -0.00000227       0.00007910      -0.00183181
Ti       2.93599509       2.88745241      10.11132550       0.00000013      -0.00055281      -0.00351439
Ti       0.00001470       5.69013410      10.52069674       0.00000512       0.00147248      -0.00140063
Ti       2.93598718       5.70139827      10.54059884      -0.00000298      -0.00040716       0.00046960
Ti       1.46226680       0.90617083      11.70502628      -0.00038777      -0.00181499      -0.00074512
Ti       4.40974492       0.90618300      11.70500851       0.00036913      -0.00186411      -0.00082022
Ti       1.44686416       4.06862036      12.32298935       0.00134712       0.00176789      -0.00101457
Ti       4.42513352       4.06862677      12.32295416      -0.00135491       0.00177954      -0.00099151
Ti       2.93602744       2.09699498      13.69243939      -0.00002726       0.00003304       0.00188893
Ti      -0.00001478       2.07325715      13.77201277       0.00003671       0.00244899       0.00095916
Ti       2.93598958       6.12817273      13.83836370       0.00002261       0.00177924      -0.00240222
Ti      -0.00002123       6.13437451      13.70648629       0.00000750       0.00224631       0.00034190
Ti       4.41958154       4.06753652      15.17221478      -0.00128865      -0.00234517       0.00038073
Ti       1.45241477       4.06754017      15.17224551       0.00127243      -0.00233109       0.00035895
Ti       4.32329814       0.96681835      15.77550135       0.00056110      -0.00186675      -0.00106129
Ti       1.54871619       0.96683261      15.77546558      -0.00057970      -0.00188190      -0.00099281
Ti       2.93602445       5.66200952      16.90068886      -0.00000589       0.00151214       0.00005131
Ti       0.00000058       5.81034668      16.84889298       0.00001679      -0.00012530       0.00154118
Cu       2.93596045       2.88821162      17.33654214       0.00003377       0.00152236      -0.00596156
Ti      -0.00003671       2.97592145      17.39368725       0.00001736      -0.00093051      -0.00227612
Ti       4.38028921       0.78399625      18.52766010      -0.00067387      -0.00144094       0.00066181
Ti       1.49172158       0.78401098      18.52769368       0.00067557      -0.00142793       0.00062887
Ti       4.44251684       4.67622608      19.08185196       0.00023620      -0.00021727       0.00243193
Ti       1.42948864       4.67621490      19.08182362      -0.00020596      -0.00021971       0.00239494
Ti       0.00003905       2.51888587      20.32194859      -0.00001564       0.00378356       0.00135852
Ti       2.93604696       2.53463642      20.24496740      -0.00002020      -0.00221383       0.00045986
Ti       0.00001063       6.57270548      20.74886941      -0.00000790      -0.00053163       0.00053206
Ti       2.93601918       6.61292691      20.70565950       0.00001342       0.00232197      -0.00047266
Ti       1.48560741       4.44820776      21.92397266      -0.00077761       0.00062126       0.00041582
Ti       4.38646402       4.44819566      21.92400515       0.00079090       0.00065384       0.00037240
Ti       1.48640698       1.47773015      22.52330007       0.00095401       0.00008994       0.00108242
Ti       4.38566848       1.47774634      22.52335010      -0.00094587       0.00005923       0.00105016
Ti       2.93603546       6.22152016      23.73532716      -0.00000083      -0.00054641       0.00032187
Ti       0.00004476       6.22019727      23.76185907      -0.00001821       0.00011787      -0.00022212
Ti       2.93604484       3.40483580      24.16477893      -0.00002149      -0.00066926       0.00255782
Ti       0.00003740       3.39680939      24.14733749      -0.00001254       0.00190945      -0.00211792
Ti       4.40593095       1.31407969      25.34417852      -0.00004404       0.00080016       0.00063029
Ti       1.46613484       1.31408319      25.34416042       0.00007944       0.00081980       0.00056916
Ti       4.40456959       5.02259606      25.96293795      -0.00005185      -0.00008018       0.00066299
Ti       1.46747127       5.02259763      25.96292025       0.00006908      -0.00007840       0.00066185
