64
Lattice="5.871999 0.0 0.0 0.0 6.890708 0.0 0.0 0.0 27.401158" Properties=species:S:1:pos:R:3:forces:R:3 job_name=T1m-Zr-Zr-35-d-0.00 GB_type=T1m element=Zr system=Zr-35-d-0.00 distance=0.0 energy=-495.87711948 stress_kbar_3x3="_JSON [[-2.63986933, -0.00140769, -0.0010575], [-0.0014077, -3.23783374, -0.00032858], [-0.0010575, -0.00032859, -9.63263138]]" pbc="T T T"
Ti       2.93602656       0.10119327      27.40112949       0.00000270      -0.00738546      -0.00132244
Ti       2.93603386       2.94130835      27.40114294       0.00000556      -0.00076377      -0.00088524
Ti       0.00000443       0.10153142      27.40113054       0.00009244      -0.00861191      -0.00126582
Ti       0.00001423       2.94148633      27.40109225       0.00005931      -0.00292719      -0.00062984
Ti       4.40439814       5.02806898       1.40789962      -0.00124752       0.00513235      -0.00192937
Ti       1.46765117       5.02807180       1.40788928       0.00115986       0.00514207      -0.00191601
Ti       4.40428890       1.32132918       2.01904489      -0.00047449      -0.00209608      -0.00044836
Ti       1.46778293       1.32129975       2.01902938       0.00033460      -0.00193944      -0.00029800
Ti       2.93601669       3.41066971       3.19506350      -0.00002219       0.00199001      -0.00518761
Ti       0.00000196       3.41178656       3.19293443       0.00017704       0.00195534       0.00343503
Ti       2.93599622       6.23195824       3.60341157       0.00014812       0.00429575      -0.00684673
Ti       0.00002847       6.23130219       3.60639445      -0.00004585       0.00744406      -0.00134917
Ti       1.46716052       1.49530538       4.82140451      -0.00128029       0.00461404      -0.00502126
Ti       4.40491617       1.49531954       4.82141405       0.00111189       0.00463824      -0.00499467
Ti       1.46676651       4.44364535       5.41905504      -0.00357978       0.00039457      -0.00381659
Ti       4.40523775       4.44363489       5.41904605       0.00367249       0.00055371      -0.00368913
Ti       2.93602274       6.59911661       6.56748316       0.00003228       0.00310941      -0.00061977
Ti       0.00002394       6.60102428       6.57756919      -0.00003913       0.00345191      -0.00450590
Ti       2.93601918       2.53028678       7.07510699      -0.00013559       0.00110981      -0.01017429
Ti       0.00001279       2.52837442       7.07838415      -0.00005096       0.00195994      -0.00281135
Ti       4.39744347       4.69344571       8.23941750      -0.00068573       0.00452260      -0.00860980
Ti       1.47455353       4.69346157       8.23940974       0.00073966       0.00447584      -0.00847710
Ti       4.40114432       0.73174741       8.82805372      -0.00004169       0.00071002      -0.00594223
Ti       1.47090749       0.73175077       8.82802780      -0.00005501       0.00065344      -0.00572661
Ti       0.00000618       2.90112825      10.03730258      -0.00003106       0.00391306      -0.00816750
Ti       2.93598801       2.90101528      10.01509592       0.00006741      -0.00235973       0.00185795
Ti       5.87199536       5.71457927      10.45581032       0.00007678      -0.00800344       0.00706811
Ti       2.93599760       5.71095312      10.50367908      -0.00002994       0.00157242       0.00017061
Ti       1.46686288       0.95795909      11.61790308       0.00131919      -0.00858910       0.00302726
Ti       4.40513273       0.95791243      11.61788507      -0.00141483      -0.00832001       0.00334050
Ti       1.51928915       4.00835531      12.24329533      -0.00488847      -0.00945018      -0.00484114
Ti       4.35268386       4.00835539      12.24330161       0.00499637      -0.00939776      -0.00480570
Ti       2.93599320       2.05091207      13.70057220       0.00004829      -0.00612203       0.00109967
Ti       0.00000681       2.15508158      13.70056216       0.00000609      -0.00626287       0.00101749
Ti       2.93599946       6.11563535      13.70057126      -0.00005331       0.00151710       0.00078314
Zr       5.87199067       6.13402305      13.70058890       0.00009274       0.00773099       0.00049333
Ti       4.35273514       4.00826646      15.15788983       0.00468108      -0.00892979       0.00547060
Ti       1.51926662       4.00828757      15.15786653      -0.00470419      -0.00899505       0.00563660
Ti       4.40515596       0.95803731      15.78322868      -0.00131918      -0.00864812      -0.00272050
Ti       1.46688039       0.95802587      15.78324829       0.00122477      -0.00861777      -0.00289753
Ti       2.93601057       5.71103181      16.89745060       0.00004010       0.00136877      -0.00163472
Ti       5.87199165       5.71463245      16.94528963       0.00009485      -0.00804907      -0.00794821
Ti       2.93601338       2.90112253      17.38605286      -0.00004550      -0.00295748      -0.00317420
Ti       5.87198855       2.90118632      17.36386207       0.00015409       0.00370604       0.00686622
Ti       4.40106633       0.73175182      18.57308011       0.00045584       0.00078619       0.00478045
Ti       1.47096464       0.73176164      18.57307657      -0.00045434       0.00068896       0.00486223
Ti       4.39747079       4.69354559      19.16169395      -0.00069013       0.00449181       0.00803432
Ti       1.47459276       4.69354271      19.16169524       0.00060506       0.00458223       0.00787201
Ti       0.00003196       2.52842396      20.32279604      -0.00017030       0.00178845       0.00263816
Ti       2.93599133       2.53034470      20.32596955       0.00026061       0.00074573       0.01052058
Ti       0.00003985       6.60106549      20.82356786       0.00004954       0.00356595       0.00512458
Ti       2.93605831       6.59916539      20.83368520      -0.00010533       0.00343929       0.00110334
Ti       1.46678743       4.44366353      21.98216775      -0.00370674       0.00049985       0.00474735
Ti       4.40520794       4.44368809      21.98217497       0.00390999       0.00021794       0.00475597
Ti       1.46720277       1.49536404      22.57980109      -0.00130415       0.00442415       0.00629580
Ti       4.40491900       1.49531556      22.57984826       0.00109333       0.00476986       0.00587892
Ti       2.93601603       6.23195874      23.79779025      -0.00004691       0.00441598       0.00804278
Ti       0.00001341       6.23129268      23.79483305       0.00008117       0.00762539       0.00243943
Ti       2.93601437       3.41064588      24.20619356       0.00006380       0.00206885       0.00618214
Ti       0.00006246       3.41174809      24.20832064      -0.00032644       0.00213631      -0.00264023
Ti       4.40427633       1.32127176      25.38212750      -0.00039910      -0.00167850      -0.00010119
Ti       1.46773984       1.32129482      25.38212662       0.00048804      -0.00190057      -0.00009231
Ti       4.40441678       5.02806197      25.99321529      -0.00122557       0.00487900       0.00099944
Ti       1.46764604       5.02806714      25.99321826       0.00122868       0.00491790       0.00094652
