64
Lattice="5.871999 0.0 0.0 0.0 6.890708 0.0 0.0 0.0 27.401158" Properties=species:S:1:pos:R:3:forces:R:3 job_name=T1m-Zn-Zn-35-d-0.00 GB_type=T1m element=Zn system=Zn-35-d-0.00 distance=0.0 energy=-488.62955354 stress_kbar_3x3="_JSON [[-11.18949923, 0.00324598, -0.00038319], [0.00324598, -11.52080681, 0.00121073], [-0.00038322, 0.00121073, -21.25705712]]" pbc="T T T"
Ti       2.93600113       0.09797556      27.40108317      -0.00007594       0.00508624       0.00043763
Ti       2.93604146       2.93719198      27.40111532      -0.00003038      -0.00477558       0.00011834
Ti       0.00006281       0.09978857      27.40107837       0.00011125       0.00012981       0.00018592
Ti       0.00004315       2.93659991      27.40113398       0.00002353      -0.00460212       0.00000139
Ti       4.40347023       5.02549031       1.41482039      -0.00192357      -0.00914208       0.00963041
Ti       1.46856750       5.02546262       1.41482633       0.00200810      -0.00915105       0.00945783
Ti       4.40476224       1.31600907       2.03292369      -0.00190477      -0.00026921       0.01256997
Ti       1.46732892       1.31603608       2.03294708       0.00185230      -0.00039729       0.01255455
Ti       2.93603677       3.40599368       3.21337654       0.00010315      -0.00426589       0.00656776
Ti       0.00003443       3.40622395       3.21443080      -0.00006473      -0.00020984       0.00887140
Ti       2.93602338       6.22429223       3.62757813       0.00005511      -0.00058176       0.00708654
Ti       0.00001904       6.22571521       3.62648886      -0.00006179      -0.00274518       0.01030770
Ti       1.46863341       1.48339463       4.85135335      -0.00039526      -0.00387758       0.00124669
Ti       4.40340677       1.48342121       4.85135949       0.00043642      -0.00409778       0.00123255
Ti       1.46879804       4.43673162       5.45617870      -0.00288012       0.00034075      -0.00586879
Ti       4.40326374       4.43668283       5.45622029       0.00282399       0.00063366      -0.00590546
Ti       2.93598216       6.58229177       6.62232433       0.00013624      -0.00337805      -0.01223214
Ti       0.00001100       6.58606448       6.61858883      -0.00002578      -0.00380595      -0.00987229
Ti       2.93602276       2.51471187       7.11774635       0.00005102       0.00129208      -0.01052784
Ti       0.00001681       2.51430375       7.12679778       0.00012880       0.00188082      -0.00711819
Ti       4.41315232       4.66024828       8.28536408       0.00069555      -0.00386120      -0.00588610
Ti       1.45886041       4.66026431       8.28527438      -0.00083720      -0.00395208      -0.00591185
Ti       4.40599981       0.73918380       8.88405683       0.00268947       0.00627013       0.00072264
Ti       1.46603729       0.73914191       8.88416257      -0.00270752       0.00656181       0.00123106
Ti       0.00001495       2.88098985      10.15639501       0.00020381       0.00650015       0.00786562
Ti       2.93596384       2.88318822      10.13052946      -0.00006512      -0.00438858       0.00715761
Ti       0.00013064       5.70938817      10.49821416      -0.00000684       0.00555153       0.01169123
Ti       2.93586668       5.69873563      10.47769345       0.00002004       0.00387300       0.01185617
Ti       1.51495636       0.90160148      11.70604263      -0.00271548      -0.00002588       0.00421624
Ti       4.35686171       0.90148245      11.70572942       0.00241549       0.00013964       0.00461230
Ti       1.44337051       4.11781296      12.29838359      -0.00943316       0.00815414       0.01240276
Ti       4.42884073       4.11792482      12.29827882       0.00922462       0.00818563       0.01285682
Ti       2.93642087       2.22211230      13.70051047       0.00031702       0.01231705      -0.00277301
Ti       5.87129176       2.06990380      13.70048986      -0.00048347       0.00589167      -0.00273308
Ti       2.93610705       6.28643888      13.70057704       0.00015190      -0.00011868      -0.00182481
Zn       0.00009853       6.16899030      13.70055841       0.00001239      -0.00570508      -0.00075066
Ti       4.42883406       4.11781490      15.10278006       0.00901610       0.00842485      -0.01380750
Ti       1.44335192       4.11773252      15.10272253      -0.00920728       0.00820563      -0.01343841
Ti       4.35688169       0.90158719      15.69541226       0.00255665       0.00053495      -0.00448449
Ti       1.51494134       0.90167389      15.69513249      -0.00282744       0.00057640      -0.00437635
Ti       2.93586805       5.69876796      16.92351854       0.00027362       0.00375056      -0.00873276
Ti       0.00012253       5.70954657      16.90297674       0.00004061       0.00415120      -0.00900377
Ti       2.93600310       2.88326768      17.27066277      -0.00000745      -0.00415628      -0.00396806
Ti       0.00004426       2.88101510      17.24479561       0.00009993       0.00732011      -0.00435911
Ti       4.40603494       0.73918422      18.51711668       0.00240970       0.00681202       0.00155604
Ti       1.46603342       0.73920740      18.51702736      -0.00252994       0.00663047       0.00103055
Ti       4.41318528       4.66036499      19.11582593       0.00077797      -0.00465034       0.00674744
Ti       1.45882497       4.66035703      19.11586751      -0.00071436      -0.00438386       0.00705719
Ti       0.00003862       2.51434098      20.27446153      -0.00023135       0.00253635       0.00520636
Ti       2.93599402       2.51473732      20.28345264       0.00018338       0.00201374       0.00937820
Ti       0.00001428       6.58607894      20.78268052       0.00000589      -0.00378568       0.00743278
Ti       2.93600781       6.58235030      20.77892678       0.00003810      -0.00367295       0.00963207
Ti       1.46878131       4.43682736      21.94508352      -0.00261731      -0.00034050       0.00343959
Ti       4.40324883       4.43675517      21.94502687       0.00277744      -0.00000485       0.00378631
Ti       1.46863037       1.48333354      22.54979164      -0.00038844      -0.00297383      -0.00213714
Ti       4.40337956       1.48334487      22.54982132       0.00045961      -0.00296395      -0.00238261
Ti       2.93605556       6.22431571      23.77354792      -0.00008809      -0.00046266      -0.00655463
Ti       0.00002385       6.22583823      23.77463550      -0.00003038      -0.00338940      -0.00956991
Ti       2.93604308       3.40607804      24.18777419       0.00000510      -0.00492063      -0.00597607
Ti       0.00001291       3.40628991      24.18670120      -0.00006366      -0.00056508      -0.00820737
Ti       4.40474200       1.31610216      25.36816661      -0.00180684      -0.00013220      -0.01195188
Ti       1.46731874       1.31614083      25.36811784       0.00192701      -0.00028490      -0.01186095
Ti       4.40347578       5.02539920      25.98636120      -0.00181374      -0.00898575      -0.00895000
Ti       1.46857002       5.02535211      25.98635230       0.00190610      -0.00874066      -0.00898242
