64
Lattice="5.871999 0.0 0.0 0.0 6.890708 0.0 0.0 0.0 27.401158" Properties=species:S:1:pos:R:3:forces:R:3 job_name=T1m-V-V-43-d-3.62 GB_type=T1m element=V system=V-43-d-3.62 distance=3.62 energy=-495.73770543 stress_kbar_3x3="_JSON [[-12.45557781, -0.0002278, -0.0002259], [-0.00022782, -14.46234133, -0.73423105], [-0.0002259, -0.73423103, -20.26083005]]" pbc="T T T"
Ti       2.93598872       0.09916148      27.39015129       0.00006098      -0.00617841       0.00631478
Ti       2.93605979       2.93189510      27.39199682      -0.00001693      -0.00354009       0.00524083
Ti       0.00009800       0.09925399      27.39007543      -0.00007508      -0.00638969       0.00670695
Ti       0.00006757       2.93153227      27.39405979      -0.00002563      -0.00353600       0.00532434
Ti       4.40547834       5.02315194       1.40847650      -0.00015867       0.00714835      -0.00179016
Ti       1.46657675       5.02315775       1.40848963       0.00016253       0.00709360      -0.00176630
Ti       4.40338546       1.31661191       2.02551396      -0.00006374      -0.00513218      -0.00386537
Ti       1.46869744       1.31660815       2.02555243       0.00007368      -0.00506671      -0.00380821
Ti       2.93603230       3.41109944       3.20859942       0.00003828       0.00087030      -0.00289048
Ti       0.00005096       3.41028993       3.20752140      -0.00007619       0.00080839      -0.00254271
Ti       2.93603437       6.22439563       3.61681146       0.00008983      -0.00038327      -0.00231023
Ti       0.00002743       6.22473120       3.61732689      -0.00006614      -0.00025151      -0.00229173
Ti       1.46804255       1.48964239       4.83830038      -0.00003275      -0.00035816       0.00098355
Ti       4.40397774       1.48959057       4.83826012       0.00004139      -0.00035398       0.00107489
Ti       1.46703017       4.44097369       5.44281958       0.00003773      -0.00047305       0.00097282
Ti       4.40502944       4.44098320       5.44281957      -0.00006908      -0.00053091       0.00101459
Ti       2.93600553       6.59739264       6.60638884       0.00002817      -0.00033418       0.00305304
Ti       0.00001326       6.59829779       6.60546939      -0.00004203      -0.00009247       0.00341849
Ti       2.93597722       2.51904046       7.10638787      -0.00003865      -0.00200711       0.00330259
Ti       0.00002409       2.51912435       7.10979057       0.00005686      -0.00224138       0.00366300
Ti       4.40369288       4.67667565       8.27247581      -0.00022442       0.00098882       0.00251628
Ti       1.46829488       4.67665343       8.27241938       0.00022257       0.00104989       0.00248335
Ti       4.40592257       0.73582051       8.87580881       0.00003367       0.00110493       0.00191053
Ti       1.46606559       0.73585438       8.87575407      -0.00004011       0.00106285       0.00186168
Ti       5.87199149       2.89181290      10.10080284       0.00002439      -0.00033988       0.00475143
Ti       2.93598853       2.88990020      10.09168184      -0.00001960      -0.00024815       0.00459175
Ti      -0.00003676       5.70578929      10.51035538      -0.00006182      -0.00059389       0.00135785
Ti       2.93601812       5.70285004      10.50598495       0.00008694      -0.00140946       0.00253000
Ti       1.46471040       0.91065398      11.69595753      -0.00032928       0.00506875      -0.00086338
Ti       4.40724107       0.91063848      11.69598779       0.00031956       0.00508368      -0.00097381
Ti       1.48050864       4.08958881      12.30499922       0.00009534      -0.00619433      -0.00255655
Ti       4.39145985       4.08958000      12.30494795      -0.00007209      -0.00616943      -0.00259658
Ti       2.93588684       2.11426001      13.74138134       0.00007963       0.01088437      -0.00245474
Ti       0.00006275       2.12563564      13.70730512      -0.00009611       0.01344600       0.00052528
Ti       2.93600316       6.17474468      13.71957877      -0.00003567      -0.00026694      -0.00536443
Ti       0.00000181       6.17917773      13.73843337       0.00003692       0.00029695      -0.00363146
Ti       4.41200068       4.07355706      15.15829529       0.00661210      -0.00824964       0.00944738
Ti       1.46000415       4.07354557      15.15835470      -0.00663814      -0.00813703       0.00953513
Ti       4.46012693       0.95675010      15.75681497       0.00303812       0.01520347       0.00557604
Ti       1.41180978       0.95671799      15.75691779      -0.00298869       0.01513989       0.00548643
Ti       2.93600949       5.76870782      16.91110785       0.00006129      -0.00415412       0.00338212
Ti       5.87195949       5.67722629      16.89155999      -0.00001855      -0.01757659       0.00207252
Ti       2.93606150       2.91520667      17.30624432      -0.00001573       0.00218774      -0.00308381
V        5.87192511       2.89049822      17.30726037      -0.00000330      -0.00107909      -0.00514661
Ti       4.44014071       0.77602080      18.53068695       0.00635271       0.00831310      -0.00104211
Ti       1.43188085       0.77605599      18.53072796      -0.00634975       0.00831871      -0.00108412
Ti       4.40075154       4.64294376      19.09669197       0.00535271      -0.00602917      -0.01161603
Ti       1.47127422       4.64287936      19.09659042      -0.00534887      -0.00599014      -0.01150421
Ti      -0.00002600       2.51576960      20.27399887       0.00022369      -0.00329299      -0.01265224
Ti       2.93606182       2.52133351      20.31047952      -0.00011877      -0.00452282      -0.00457177
Ti      -0.00000699       6.57791115      20.77403556       0.00013354       0.00368911      -0.00315825
Ti       2.93607875       6.57750427      20.75676372      -0.00019275       0.00325705      -0.00070639
Ti       1.46612929       4.43953248      21.93847927       0.00055604      -0.00112047      -0.00162498
Ti       4.40592333       4.43954954      21.93847892      -0.00047025      -0.00119038      -0.00148499
Ti       1.46353064       1.47741164      22.54820948       0.00079661      -0.00237129      -0.00392587
Ti       4.40855899       1.47741457      22.54819234      -0.00092331      -0.00247022      -0.00379490
Ti       2.93602456       6.21826194      23.76928816       0.00007093       0.00062688      -0.00188605
Ti       0.00005365       6.21921883      23.77263261      -0.00007649       0.00127385      -0.00227335
Ti       2.93602471       3.40440347      24.17023877       0.00006816       0.00252868      -0.00202723
Ti       0.00005645       3.40257653      24.17745409      -0.00005032       0.00204260      -0.00162440
Ti       4.40168072       1.31455693      25.36037487      -0.00098051      -0.00612149       0.00296274
Ti       1.47042073       1.31455296      25.36024791       0.00092558      -0.00606403       0.00298995
Ti       4.40441995       5.01944316      25.97525271      -0.00079793       0.00651462       0.00391425
Ti       1.46767547       5.01947277      25.97530708       0.00083737       0.00645809       0.00394885
