64
Lattice="5.871999 0.0 0.0 0.0 6.890708 0.0 0.0 0.0 27.401158" Properties=species:S:1:pos:R:3:forces:R:3 job_name=T1m-Zr-Zr-40-d-3.20 GB_type=T1m element=Zr system=Zr-40-d-3.20 distance=3.2 energy=-495.61580648 stress_kbar_3x3="_JSON [[-2.26602234, 0.00131829, 0.00121132], [0.00131833, -3.10108692, 1.03591284], [0.00121131, 1.03591285, -10.15290156]]" pbc="T T T"
Ti       2.93597136       0.09567629       0.01203259       0.00012349      -0.00517442      -0.00051727
Ti       2.93600326       2.93724482       0.01626471       0.00009188      -0.00009786      -0.00202664
Ti       0.00000990       0.09534779       0.01088051      -0.00010466      -0.00415609      -0.00099274
Ti       0.00001860       2.93591303       0.01499372      -0.00003001      -0.00008682      -0.00122971
Ti       4.40483692       5.02618179       1.42036959       0.00017673      -0.00191182      -0.00206931
Ti       1.46715610       5.02614432       1.42037226      -0.00021109      -0.00154389      -0.00186804
Ti       4.40385192       1.31774252       2.02892563       0.00038030      -0.00374590      -0.00160519
Ti       1.46812287       1.31775570       2.02894064      -0.00030156      -0.00374808      -0.00167454
Ti       2.93599229       3.40790590       3.20507031      -0.00014331      -0.00011938       0.00092984
Ti       5.87196930       3.40772834       3.20349647       0.00018231      -0.00011228       0.00134541
Ti       2.93602047       6.23002219       3.61440084      -0.00027863      -0.00381842       0.00147708
Ti      -0.00001689       6.23007218       3.61458921       0.00026666      -0.00347831       0.00011645
Ti       1.46723358       1.48888407       4.82977955       0.00050431      -0.00495347       0.00224364
Ti       4.40474909       1.48890202       4.82978303      -0.00052188      -0.00509309       0.00222911
Ti       1.46651019       4.43891346       5.42590262       0.00025516      -0.00276688      -0.00057375
Ti       4.40545552       4.43890925       5.42590531      -0.00025736      -0.00275724      -0.00056628
Ti       2.93597915       6.58874482       6.58583068      -0.00002471      -0.00319093       0.00056428
Ti       5.87197848       6.59089741       6.58450872      -0.00001351      -0.00236602       0.00006540
Ti       2.93599555       2.51700748       7.07917304      -0.00008634      -0.00506683       0.00057292
Ti      -0.00000808       2.51610811       7.08679954       0.00006670      -0.00499990       0.00088597
Ti       4.40548878       4.66182514       8.23875417       0.00150321      -0.00427613      -0.00065068
Ti       1.46644459       4.66181633       8.23876282      -0.00133387      -0.00407068      -0.00081191
Ti       4.40617538       0.73326674       8.83672308      -0.00036022       0.00046716      -0.00150589
Ti       1.46580367       0.73326343       8.83673166       0.00028828       0.00056228      -0.00162381
Ti       5.87195330       2.87716476      10.07903494       0.00009005       0.00104698       0.00385361
Ti       2.93596138       2.87484264      10.06252647       0.00000143      -0.00313639       0.00363637
Ti       5.87196148       5.69627667      10.45145264       0.00006682      -0.00414835       0.00026634
Ti       2.93598006       5.68827146      10.44417125      -0.00011727      -0.00442203       0.00068448
Ti       1.47630717       0.87384298      11.63057330      -0.00248094      -0.00283889       0.00228492
Ti       4.39562581       0.87383776      11.63057746       0.00260595      -0.00262779       0.00248013
Ti       1.47831906       4.10821224      12.24917382       0.00075089       0.00362277       0.00036033
Ti       4.39361129       4.10820023      12.24915738      -0.00069491       0.00365909       0.00022506
Ti       2.93600501       2.10576872      13.65073011       0.00014459       0.00552155      -0.00397341
Ti       0.00006232       2.11932794      13.58974533      -0.00010368      -0.00283244       0.00322411
Ti       2.93595515       6.16578423      13.64735653       0.00004616       0.00373747       0.00517751
Ti      -0.00002942       6.18322755      13.71283478      -0.00007787       0.00288781       0.00012658
Ti       4.43379978       4.03319596      15.06551833       0.00018988       0.00211850      -0.00017829
Ti       1.43835337       4.03317337      15.06558725      -0.00036050       0.00242762      -0.00080180
Ti       4.46531304       1.00357641      15.69788727       0.00120984       0.00331976      -0.00162379
Ti       1.40688986       1.00355808      15.69791276      -0.00167292       0.00343054      -0.00182885
Zr       2.93612946       5.75093613      16.90222747       0.00053603       0.00622717      -0.00209787
Ti       0.00018354       5.74302587      16.90783602      -0.00015957       0.00773642       0.00099389
Ti       2.93601910       2.84547144      17.32443463       0.00019374       0.00322800       0.00265978
Ti       0.00004573       2.94311021      17.35596497      -0.00008944      -0.00147125      -0.00066343
Ti       4.44417630       0.77964025      18.58051753       0.00039895       0.00197092      -0.00140795
Ti       1.42797456       0.77963770      18.58052208      -0.00042692       0.00166027      -0.00125640
Ti       4.43397787       4.66424035      19.20715481      -0.00231587       0.00623265      -0.00291452
Ti       1.43828206       4.66423158      19.20711833       0.00206258       0.00623650      -0.00258667
Ti       0.00008009       2.52055354      20.34967093       0.00014809      -0.00124896       0.00118643
Ti       2.93608408       2.52471079      20.33886297      -0.00046482       0.00488747      -0.00139904
Ti       0.00002652       6.59468016      20.84691671       0.00035972       0.00363718      -0.00271409
Ti       2.93605548       6.58650559      20.82255968      -0.00033359       0.00322455      -0.00134144
Ti       1.47157885       4.44423915      22.00441545       0.00109634       0.00248186       0.00265685
Ti       4.40043406       4.44423507      22.00443439      -0.00092887       0.00256430       0.00311656
Ti       1.47141434       1.47916203      22.59782777      -0.00132627       0.00110440       0.00067448
Ti       4.40065779       1.47916426      22.59783469       0.00140896       0.00086207       0.00087720
Ti       2.93597909       6.22238794      23.81358912       0.00037883      -0.00060759      -0.00091606
Ti       0.00002489       6.22414736      23.82371059      -0.00021797       0.00060512      -0.00106246
Ti       2.93599767       3.40377185      24.22385816      -0.00001040       0.00605960      -0.00096900
Ti       0.00001640       3.40202717      24.21917629      -0.00004894       0.00275776      -0.00114559
Ti       4.40361071       1.31805860      25.39759227       0.00067553      -0.00218539       0.00062525
Ti       1.46840067       1.31803010      25.39759008      -0.00074999      -0.00189740       0.00055076
Ti       4.40347410       5.01953507      26.00884009       0.00057954       0.00049149       0.00025207
Ti       1.46852449       5.01955628      26.00885462      -0.00053503       0.00018161       0.00025364
