64
Lattice="5.871999 0.0 0.0 0.0 6.890708 0.0 0.0 0.0 27.401158" Properties=species:S:1:pos:R:3:forces:R:3 job_name=T1m-Zn-Zn-41-d-3.20 GB_type=T1m element=Zn system=Zn-41-d-3.20 distance=3.2 energy=-488.91489546 stress_kbar_3x3="_JSON [[-11.18142026, -0.00015254, -0.00017156], [-0.00015258, -11.86550483, -2.79678857], [-0.00017157, -2.79678856, -21.51263881]]" pbc="T T T"
Ti       2.93603895       0.09126362       0.03818883      -0.00008458      -0.00538160       0.01296549
Ti       2.93598425       2.92752594      27.34938562       0.00000779       0.00217413       0.00112151
Ti       5.87199484       0.09356959       0.03549948       0.00007028      -0.00135691       0.00724230
Ti       5.87199023       2.92687709      27.35157802      -0.00000535      -0.00009476       0.00088807
Ti       4.40734946       5.00057790       1.40050252      -0.00001308       0.00176228      -0.00041724
Ti       1.46462194       5.00053801       1.40052901       0.00019014       0.00211546      -0.00074397
Ti       4.40322989       1.39272052       2.02167841      -0.00010884      -0.00258639      -0.00539670
Ti       1.46879209       1.39271221       2.02170433       0.00020854      -0.00258543      -0.00563762
Ti       2.93600166       3.46082567       3.24198160       0.00005993      -0.00215635      -0.00354161
Ti       0.00003958       3.46136817       3.24214514      -0.00028149      -0.00159799       0.00009050
Ti       2.93601627       6.28467603       3.58497581      -0.00005801       0.00275310      -0.00946785
Ti       0.00002764       6.28307942       3.58493830      -0.00006434       0.00585614      -0.00669922
Ti       1.46817070       1.54308474       4.84186073       0.00065400      -0.00128564      -0.00653367
Ti       4.40385363       1.54309781       4.84186956      -0.00054553      -0.00135744      -0.00658724
Ti       1.46726306       4.52258772       5.44839184      -0.00051529       0.00836769       0.00038219
Ti       4.40473699       4.52259870       5.44836011       0.00076867       0.00823617       0.00046727
Ti       2.93603790       6.67272996       6.60394760      -0.00009997       0.00371749      -0.00220088
Ti       0.00003753       6.67414924       6.60519073      -0.00008868       0.00727162      -0.00326998
Ti       2.93601886       2.60356417       7.11138239      -0.00000134       0.00493144      -0.00173024
Ti       0.00004826       2.60432112       7.10901924      -0.00008713       0.00021940      -0.00528425
Ti       4.40282448       4.77355637       8.28200534       0.00052760       0.00670784      -0.00200115
Ti       1.46922326       4.77354419       8.28199923      -0.00050333       0.00689725      -0.00192346
Ti       4.40401752       0.80605596       8.88316621       0.00072955      -0.00473594      -0.00420212
Ti       1.46802754       0.80608163       8.88319165      -0.00072461      -0.00497937      -0.00431679
Ti       0.00001577       2.97303879      10.06330697      -0.00002161      -0.00046642       0.00071813
Ti       2.93598626       2.96823034      10.06680148       0.00010959       0.00507317      -0.00045384
Ti       0.00001828       5.79535714      10.55758389       0.00000358       0.01508769      -0.00073605
Ti       2.93601402       5.79973717      10.55335677       0.00003207       0.01282487      -0.00011619
Ti       1.45462850       1.04266920      11.70501110       0.00126352       0.00411100       0.01313584
Ti       4.41738988       1.04266451      11.70501022      -0.00120451       0.00409314       0.01303319
Ti       1.46920619       4.09211987      12.31892494      -0.00230000      -0.00687103       0.01506692
Ti       4.40281884       4.09212860      12.31891059       0.00237407      -0.00694374       0.01514633
Ti       2.93602511       2.15537926      13.85476695      -0.00001646      -0.00182186      -0.00136212
Ti       0.00002550       2.19065079      13.88987546      -0.00017572       0.00810770       0.00380362
Ti       2.93604230       6.20805597      13.62501019      -0.00006348       0.01592008      -0.00250874
Ti       0.00003404       6.22861178      13.60175148      -0.00004733       0.00648309       0.00009100
Ti       4.36904444       4.16737837      15.15274700       0.00475163      -0.00555389      -0.01261743
Ti       1.50300459       4.16735288      15.15276362      -0.00483332      -0.00544676      -0.01256282
Ti       4.42605217       0.72483952      15.73421170       0.00313101       0.00179115      -0.00350583
Ti       1.44599923       0.72488349      15.73417919      -0.00322579       0.00155160      -0.00312666
Ti       2.93601066       5.55073621      16.99199691       0.00004251       0.00424380       0.01487472
Zn       5.87198451       5.63492886      16.95720054       0.00022897      -0.00289339       0.00596961
Ti       2.93601553       2.72550114      17.23094337      -0.00004649      -0.01201141      -0.00342250
Ti       0.00000798       2.81783716      17.26388883       0.00009511      -0.00138799      -0.00553888
Ti       4.44545977       0.64011888      18.51721469      -0.00355152      -0.00592903      -0.00126605
Ti       1.42659246       0.64010607      18.51721479       0.00348269      -0.00597778      -0.00113383
Ti       4.43270150       4.57552854      19.10046252      -0.00319531      -0.00370135      -0.00774899
Ti       1.43933561       4.57555670      19.10043858       0.00313308      -0.00382748      -0.00756716
Ti       0.00003943       2.45343539      20.22605633       0.00003413       0.00071401       0.00223105
Ti       2.93603308       2.42823202      20.27250967      -0.00008607      -0.00213176      -0.00390977
Ti       5.87197100       6.52505679      20.81570401       0.00021300      -0.00712049       0.00333501
Ti       2.93603474       6.49779647      20.74875923      -0.00015143      -0.00061940       0.00095540
Ti       1.46983274       4.35174290      21.92929139      -0.00370252      -0.00226577       0.00109610
Ti       4.40217659       4.35176329      21.92928040       0.00369545      -0.00241004       0.00125141
Ti       1.46390069       1.44042011      22.53451854      -0.00002640      -0.00075710       0.00343807
Ti       4.40812484       1.44039435      22.53453220       0.00003123      -0.00056330       0.00342763
Ti       2.93600513       6.17051034      23.72615693      -0.00004072      -0.00737588       0.00155374
Ti       5.87199689       6.17569336      23.74472178       0.00007991      -0.00550875       0.00270902
Ti       2.93601408       3.35288450      24.19482206      -0.00000335      -0.00099059      -0.00030251
Ti       5.87199273       3.35614519      24.19778693       0.00016684      -0.00193818      -0.00057140
Ti       4.40164437       1.24888888      25.35811631       0.00276091      -0.00822908       0.00147319
Ti       1.47040651       1.24888546      25.35810418      -0.00290268      -0.00829446       0.00160849
Ti       4.40271902       5.03461373      25.96980615       0.00242547      -0.00095305       0.00521007
Ti       1.46930496       5.03461283      25.96982642      -0.00249498      -0.00090352       0.00511888
