64
Lattice="5.871999 0.0 0.0 0.0 6.890708 0.0 0.0 0.0 27.401158" Properties=species:S:1:pos:R:3:forces:R:3 job_name=T1m-Zn-Zn-44-d-4.84 GB_type=T1m element=Zn system=Zn-44-d-4.84 distance=4.84 energy=-488.77630063 stress_kbar_3x3="_JSON [[-12.5293343, 0.00022968, 0.00022955], [0.0002297, -14.05851586, 0.68220432], [0.0002296, 0.68220431, -19.44826242]]" pbc="T T T"
Ti       2.93321550       0.10953994      27.39831656      -0.00747142      -0.00384950      -0.00432629
Ti       2.93473950       2.94277447      27.39695541      -0.00203273       0.00517782      -0.00445988
Ti       0.00284050       0.10953352      27.39831720       0.00741035      -0.00378834      -0.00429286
Ti       0.00129758       2.94275179      27.39693157       0.00202551       0.00542665      -0.00429161
Ti       4.40400164       5.03030489       1.40969987       0.00007824       0.00114190      -0.00445857
Ti       1.46799625       5.03223692       1.41140274       0.00004600       0.00192283      -0.01133819
Ti       4.40399418       1.32198989       2.02548642       0.00027662       0.00161259      -0.00279241
Ti       1.46804290       1.32106398       2.03010320      -0.00010830       0.00249069      -0.00290736
Ti       2.93643468       3.41332913       3.20628991       0.00135288      -0.00071236       0.00214117
Ti       5.87161580       3.41336070       3.20629292      -0.00144568      -0.00100559       0.00209969
Ti       2.93562109       6.22950635       3.61775071      -0.00063597       0.00058423       0.00047392
Ti       0.00039898       6.22951798       3.61772671       0.00060035       0.00056853       0.00051311
Ti       1.46801294       1.49302698       4.83819447      -0.00002836       0.00001599       0.00397108
Ti       4.40402068       1.49160028       4.83527216       0.00004294       0.00036690       0.00442348
Ti       1.46800705       4.44106056       5.44189513       0.00013202      -0.00021043       0.00627143
Ti       4.40402851       4.44022246       5.43680373      -0.00006608      -0.00147963       0.00759825
Ti       2.93460775       6.59572470       6.60283872      -0.00127224      -0.00182906       0.00534318
Ti       0.00142457       6.59570265       6.60282148       0.00125611      -0.00161211       0.00533977
Ti       2.93458123       2.51978758       7.10445732      -0.00018291       0.00014327      -0.00039034
Ti       0.00148199       2.51977046       7.10445007       0.00005930       0.00011119      -0.00038853
Ti       4.40402362       4.67219736       8.26048506      -0.00004966      -0.00221122      -0.00015697
Ti       1.46798766       4.67412366       8.26957917       0.00011317       0.00338147      -0.00029836
Ti       4.40401279       0.73558442       8.85974095      -0.00001786       0.00249395       0.00263720
Ti       1.46800926       0.73292447       8.88003173       0.00002075      -0.00113920       0.00888366
Ti       5.86963000       2.88929295      10.09740907       0.00094730      -0.00072377       0.00849184
Ti       2.93836567       2.88928459      10.09743095      -0.00099895      -0.00068033       0.00843101
Ti       0.00577643       5.70305989      10.49542445       0.00330952       0.00655588      -0.00034535
Ti       2.93021826       5.70306559      10.49544991      -0.00331009       0.00651464      -0.00051553
Ti       1.46800006       0.90552224      11.70221192      -0.00006095       0.00041765       0.00535639
Ti       4.40397493       0.89502929      11.66066675       0.00011848      -0.00144862       0.00482943
Ti       1.46797658       4.08762380      12.28594032      -0.00003287       0.00619067       0.00622903
Ti       4.40399430       4.10655234      12.31519818       0.00002461      -0.00071809       0.00519392
Ti       2.99119231       2.13622041      13.69895446       0.01478973       0.00591642       0.00054059
Ti       5.81676170       2.13619868      13.69896104      -0.01469003       0.00585014       0.00066486
Ti       2.95629350       6.17598730      13.71106256       0.00396476       0.00560254       0.00464900
Ti       5.85167249       6.17598790      13.71105477      -0.00393628       0.00554800       0.00469131
Ti       4.40399348       4.07272516      15.18154681       0.00003797       0.00017704      -0.01318682
Ti       1.46801398       4.09792677      15.13276265      -0.00012128      -0.00490091      -0.00187804
Ti       4.40392996       0.92079755      15.76996860       0.00022870       0.00294854      -0.00036683
Ti       1.46802919       0.91396042      15.65211349      -0.00016101      -0.00117862       0.01805416
Ti       2.90173942       5.73252798      16.92171514       0.00261115       0.00181790       0.00215282
Ti       0.03426899       5.73254192      16.92174854      -0.00259537       0.00178103       0.00192259
Ti       2.94910956       2.85877526      17.32552712       0.00005054      -0.00592841      -0.00085788
Ti       5.85889519       2.85876217      17.32552091      -0.00008059      -0.00581939      -0.00101765
Zn       4.40402490       0.69871428      18.56018520      -0.00006993      -0.00036543      -0.00975133
Ti       1.46802152       0.67319595      18.48504421       0.00011234      -0.00281320      -0.01034469
Ti       4.40401282       4.71234895      19.13575352       0.00002333      -0.00202950      -0.00476848
Ti       1.46802794       4.61317976      19.14689858      -0.00005505       0.00149956      -0.00453681
Ti       5.83690554       2.49479794      20.28440487       0.00348933       0.00093659       0.00463960
Ti       2.97117348       2.49482439      20.28442691      -0.00349340       0.00071547       0.00449279
Ti       5.86166447       6.59940854      20.79163249       0.00441122      -0.00781511       0.00167359
Ti       2.94641809       6.59940660      20.79166562      -0.00454583      -0.00771465       0.00148138
Ti       1.46805251       4.44292982      21.94982176      -0.00003451      -0.00473132      -0.00711181
Ti       4.40404349       4.45726706      21.92143018       0.00008918      -0.01035518       0.00027465
Ti       1.46804792       1.50106166      22.54796620      -0.00003583      -0.00191253      -0.01509923
Ti       4.40402854       1.50680125      22.58244115       0.00009147       0.00153847       0.00375156
Ti       2.93448182       6.22536141      23.76147656      -0.00125222       0.00356436      -0.00380618
Ti       0.00159758       6.22536576      23.76146524       0.00105042       0.00350952      -0.00369714
Ti       2.93650275       3.42303939      24.19145969       0.00608700      -0.00647508      -0.00560832
Ti       5.87160309       3.42303336      24.19146241      -0.00619519      -0.00640559      -0.00575493
Ti       4.40402321       1.32124559      25.37471686       0.00005577       0.00293752      -0.01543395
Ti       1.46802239       1.31651616      25.35460885       0.00001798      -0.00207330       0.00236864
Ti       4.40402412       5.03931607      25.98561092       0.00010963       0.00211286       0.00202021
Ti       1.46804565       5.03830135      25.98438994      -0.00005410       0.00035364       0.00257701
