64
Lattice="5.871999 0.0 0.0 0.0 6.890708 0.0 0.0 0.0 27.401158" Properties=species:S:1:pos:R:3:forces:R:3 job_name=T1m-Zn-Zn-43-d-3.62 GB_type=T1m element=Zn system=Zn-43-d-3.62 distance=3.62 energy=-488.71953338 stress_kbar_3x3="_JSON [[-9.74627211, 0.00039353, -0.00065218], [0.00039353, -10.38177521, 0.4148828], [-0.00065219, 0.41488283, -19.74269145]]" pbc="T T T"
Ti       2.93603192       0.09763858      27.39107573      -0.00001631       0.00099402       0.00275899
Ti       2.93604064       2.93463464      27.39144803      -0.00001786      -0.00358251       0.00059947
Ti       0.00003409       0.09932529      27.39237186      -0.00000517      -0.00025649       0.00190246
Ti       0.00004117       2.93615502      27.39116052       0.00001103      -0.00350729       0.00199920
Ti       4.40538323       5.02704383       1.40363118       0.00041358      -0.00466978       0.00430954
Ti       1.46668425       5.02705205       1.40362646      -0.00042275      -0.00468389       0.00433941
Ti       4.40272155       1.31776409       2.02296186       0.00071918      -0.00089687       0.00296485
Ti       1.46930721       1.31775931       2.02297954      -0.00069070      -0.00089450       0.00287378
Ti       2.93601342       3.41111165       3.20636609      -0.00004238      -0.00258663       0.00258093
Ti       0.00002576       3.41114962       3.20623048       0.00001401      -0.00162555       0.00326123
Ti       2.93600883       6.22843842       3.61635690       0.00002696      -0.00413718       0.00074478
Ti       0.00002934       6.22759323       3.61671321       0.00001061      -0.00436299       0.00274806
Ti       1.46767675       1.49167157       4.83928849       0.00042934      -0.00238868       0.00170277
Ti       4.40435790       1.49166922       4.83928735      -0.00041946      -0.00240628       0.00169548
Ti       1.46652309       4.43854363       5.44452387       0.00034192      -0.00277582       0.00272040
Ti       4.40549332       4.43854373       5.44451488      -0.00032194      -0.00273660       0.00274929
Ti       2.93600678       6.59371156       6.60458764       0.00002946      -0.00109047       0.00120976
Ti       0.00001994       6.59561727       6.60352756      -0.00006032      -0.00105957       0.00200854
Ti       2.93599217       2.51901185       7.10613210       0.00004355      -0.00064061       0.00078790
Ti       0.00000675       2.51844258       7.11354304      -0.00001726      -0.00256844      -0.00089789
Ti       4.40369984       4.67525733       8.27674678      -0.00087669      -0.00348503      -0.00192157
Ti       1.46830414       4.67525347       8.27673535       0.00087573      -0.00350819      -0.00179264
Ti       4.40822429       0.72645207       8.87893217      -0.00157558      -0.00009070      -0.00160300
Ti       1.46377811       0.72644967       8.87892665       0.00154810      -0.00009301      -0.00140091
Ti       5.87199340       2.88231370      10.09945297       0.00000285      -0.00100119       0.00238882
Ti       2.93600042       2.87467752      10.07952463      -0.00002447      -0.00004848      -0.00127406
Ti       0.00000534       5.70124228      10.52484127       0.00002015      -0.00478848      -0.00470808
Ti       2.93600071       5.69651546      10.50824104      -0.00002438      -0.00405007      -0.00197926
Ti       1.46527257       0.90025601      11.69414610       0.00518512      -0.00152559       0.00193422
Ti       4.40671450       0.90025918      11.69412148      -0.00516021      -0.00149217       0.00209635
Ti       1.48924485       4.07815196      12.31140114       0.00503928       0.00004350       0.00573770
Ti       4.38274847       4.07815438      12.31141011      -0.00506718       0.00007403       0.00572317
Ti       2.93599246       2.09419259      13.73967189       0.00002305       0.01175520       0.00262141
Ti       5.87199521       2.11148434      13.69200756      -0.00000710       0.00628117       0.00419913
Ti       2.93598138       6.14985970      13.69662165       0.00001204       0.00172258       0.00572806
Ti       5.87199157       6.14014327      13.79115482      -0.00001258      -0.00349197       0.01057791
Ti       4.37343945       4.09443765      15.15120887      -0.00789835       0.00197358       0.00334264
Ti       1.49856227       4.09443583      15.15121661       0.00790981       0.00203276       0.00334353
Ti       4.46441915       0.94300462      15.75408911       0.00375190       0.00659146       0.00282541
Ti       1.40757615       0.94298885      15.75411432      -0.00379002       0.00664342       0.00257407
Ti       2.93600627       5.79506383      16.85613892       0.00005948       0.00075281      -0.00143500
Ti       5.87199873       5.67059800      16.90122722      -0.00004773       0.00056313       0.00665608
Ti       2.93600724       2.95967068      17.38095121       0.00003045       0.00372520       0.00475445
Zn       0.00000147       2.88335394      17.32719587       0.00000182       0.00292399      -0.00224692
Ti       4.41914944       0.76334054      18.53439992      -0.00053793       0.00709516      -0.00090156
Ti       1.45290863       0.76333675      18.53437190       0.00050286       0.00716267      -0.00064572
Ti       4.37552381       4.67864387      19.09952391       0.00085823      -0.00108877      -0.00515903
Ti       1.49649164       4.67864349      19.09950588      -0.00087126      -0.00109908      -0.00500746
Ti       0.00002062       2.52608213      20.27301464       0.00004575       0.00375138      -0.00648716
Ti       2.93603119       2.51711939      20.32929445      -0.00001371       0.00143517       0.00038144
Ti       0.00002146       6.60818162      20.73095403       0.00009721       0.00386455      -0.00797522
Ti       2.93602987       6.58046678      20.76934579      -0.00009269       0.00324774      -0.00180062
Ti       1.45642799       4.44211187      21.93883749      -0.00125078       0.00461022      -0.00161166
Ti       4.41564968       4.44213485      21.93883369       0.00118828       0.00450822      -0.00162154
Ti       1.45555071       1.47986123      22.53833759      -0.00076637      -0.00177172      -0.00509314
Ti       4.41650065       1.47986329      22.53833029       0.00074007      -0.00172660      -0.00505104
Ti       2.93604375       6.22205165      23.77277876      -0.00000206      -0.00130838      -0.00472864
Ti       0.00003806       6.22501638      23.75334107       0.00002074      -0.00513807      -0.00667444
Ti       2.93604239       3.39919868      24.16478319       0.00000262       0.00153495      -0.01140939
Ti       0.00002754       3.40499948      24.17643565      -0.00000558       0.00391535      -0.00724165
Ti       4.40313043       1.31472455      25.35522727      -0.00050612       0.00083176      -0.00439791
Ti       1.46894516       1.31473483      25.35522523       0.00056852       0.00079477      -0.00441933
Ti       4.40388959       5.02399784      25.97321413      -0.00077789      -0.00312295      -0.00466964
Ti       1.46817976       5.02398996      25.97321261       0.00079915      -0.00312820      -0.00468676
