64
Lattice="5.871999 0.0 0.0 0.0 6.890708 0.0 0.0 0.0 27.401158" Properties=species:S:1:pos:R:3:forces:R:3 job_name=T1m-Cu-Cu-36-d-1.42 GB_type=T1m element=Cu system=Cu-36-d-1.42 distance=1.42 energy=-491.00049296 stress_kbar_3x3="_JSON [[-12.67920563, 0.00061977, 0.00017991], [0.00061979, -17.3919238, -0.11339049], [0.0001799, -0.11339047, -21.98595477]]" pbc="T T T"
Ti       2.93863692       0.10607675      27.39780322       0.00023221       0.00070923      -0.00029921
Ti       2.93576485       2.93961496      -0.00005395       0.00051620      -0.00256244       0.00110350
Ti       5.86942175       0.10603846      27.39775836      -0.00012603       0.00077229      -0.00003538
Ti       0.00027677       2.93964175      -0.00006416      -0.00040830      -0.00254385       0.00110353
Ti       4.40404822       5.02951297       1.41452650      -0.00008672      -0.00030349       0.00670534
Ti       1.46803250       5.03243919       1.41363198       0.00001621      -0.00116563       0.00435115
Ti       4.40401161       1.31910902       2.02948298       0.00001890       0.00344606       0.00579784
Ti       1.46805776       1.31715908       2.03309473      -0.00006851       0.00186508       0.00425347
Ti       2.93213668       3.41226288       3.20943122       0.00020490      -0.00215864       0.00450425
Ti       0.00392849       3.41225051       3.20943394      -0.00016243      -0.00211814       0.00448952
Ti       2.93335763       6.23062046       3.62394003       0.00071739      -0.00105212       0.00137647
Ti       0.00269622       6.23062427       3.62394277      -0.00071684      -0.00114498       0.00135989
Ti       1.46802318       1.49767765       4.85037687       0.00001918       0.00511196      -0.00183039
Ti       4.40401399       1.49358803       4.84054796      -0.00001325       0.00352895      -0.00114428
Ti       1.46804125       4.43793623       5.45708215      -0.00010889      -0.00251864      -0.00056627
Ti       4.40403520       4.43935983       5.43689947      -0.00007047       0.00050444      -0.00004220
Ti       2.93919948       6.59559500       6.60378865       0.00325892       0.00385073       0.00448477
Ti       5.86876429       6.59554843       6.60375948      -0.00311965       0.00391534       0.00451065
Ti       2.93752759       2.52664316       7.11763591       0.00169412       0.00034496       0.00484121
Ti       5.87053799       2.52663313       7.11762538      -0.00176856       0.00038549       0.00480807
Ti       4.40398585       4.69505277       8.27336890       0.00006057       0.00666517       0.00593906
Ti       1.46797517       4.68485614       8.30355832       0.00009437       0.00104179       0.00876879
Ti       4.40400997       0.72004405       8.89640502      -0.00005411      -0.00140389       0.00898206
Ti       1.46801261       0.73376072       8.86174258       0.00004397       0.00782725       0.00605886
Ti       5.84497093       2.87232656      10.08691050      -0.00117579      -0.00089215       0.00911116
Ti       2.96300513       2.87230663      10.08692280       0.00114542      -0.00084024       0.00903967
Ti       5.82413691       5.72285115      10.52602763      -0.00017690       0.00234536       0.01209638
Ti       2.98384082       5.72287784      10.52601708       0.00016974       0.00226002       0.01214679
Ti       1.46797865       0.89350904      11.70969516       0.00004419      -0.00143614      -0.00030009
Ti       4.40399877       0.97375297      11.76928274      -0.00008798       0.00911132       0.00732592
Ti       1.46798299       4.06101105      12.23890681       0.00006602       0.00017829      -0.01156893
Ti       4.40399352       4.03018776      12.33704937      -0.00007088      -0.00941986      -0.00010958
Ti       2.88837440       2.15713561      13.75184510       0.00403606      -0.00061027      -0.00177071
Ti       0.04758641       2.15713933      13.75184068      -0.00399489      -0.00066228      -0.00171203
Ti       2.91630572       6.15067791      13.69669510       0.00115892       0.00247722      -0.01127940
Ti       0.01965065       6.15069386      13.69667890      -0.00103705       0.00247823      -0.01111456
Cu       4.40399275       4.06992930      15.14400165       0.00001433      -0.00196520      -0.00192142
Ti       1.46799394       4.07545468      15.05482279      -0.00005618       0.00707470       0.00220900
Ti       4.40399639       0.91439577      15.71054145       0.00003138      -0.01227208      -0.00011096
Ti       1.46799454       0.84609718      15.74676242      -0.00003816      -0.00569640       0.00226178
Ti       2.98652935       5.67287363      16.87359437       0.00319732      -0.00564190       0.00505043
Ti       5.82151154       5.67286085      16.87360604      -0.00320130      -0.00562373       0.00499549
Ti       2.94378744       2.88429304      17.29678346      -0.00186805      -0.00787216       0.00206884
Ti       5.86419551       2.88428365      17.29681418       0.00201195      -0.00770833       0.00196279
Ti       4.40401722       0.73242983      18.47345953       0.00004687       0.00023052      -0.00140618
Ti       1.46803840       0.73261394      18.51568704      -0.00009739      -0.00417571      -0.01198146
Ti       4.40404038       4.69573014      19.14581195      -0.00011272      -0.00406095      -0.00707104
Ti       1.46801501       4.68990097      19.09834771      -0.00002614      -0.00242947      -0.00831454
Ti       0.00006635       2.51765315      20.26569458      -0.00477234       0.00265331      -0.00623170
Ti       2.93601878       2.51766239      20.26569075       0.00479975       0.00258686      -0.00626537
Ti       5.86949539       6.60825793      20.78909032      -0.00205619       0.00131053      -0.00634505
Ti       2.93848339       6.60830174      20.78905849       0.00218303       0.00127052      -0.00631467
Ti       1.46803988       4.43952222      21.93010256      -0.00003884      -0.00199092      -0.00081130
Ti       4.40404399       4.44137378      21.95798594       0.00004477      -0.00114148      -0.00413165
Ti       1.46803525       1.50391393      22.54642513      -0.00006572       0.00282806      -0.00010645
Ti       4.40402356       1.49950400      22.55564328      -0.00004065       0.00605683       0.00116460
Ti       2.93425674       6.23300036      23.77439855      -0.00192714       0.00001979      -0.00316528
Ti       0.00180717       6.23297853      23.77443632       0.00198167       0.00003306      -0.00325748
Ti       2.93277260       3.42007713      24.18072378      -0.00093051      -0.00089836      -0.00875241
Ti       0.00331486       3.42004340      24.18072442       0.00091282      -0.00076350      -0.00874254
Ti       4.40404267       1.32261178      25.36686072      -0.00011514       0.00486045      -0.00630472
Ti       1.46803379       1.32146997      25.36481666       0.00008738       0.00574071      -0.00751820
Ti       4.40404672       5.02990915      25.98557560      -0.00023392      -0.00095665      -0.00761419
Ti       1.46804001       5.03193504      25.98600611       0.00001906       0.00054508      -0.00473161
