64
Lattice="5.871999 0.0 0.0 0.0 6.890708 0.0 0.0 0.0 27.401158" Properties=species:S:1:pos:R:3:forces:R:3 job_name=T1m-Al-Al-46-d-5.43 GB_type=T1m element=Al system=Al-46-d-5.43 distance=5.43 energy=-491.9997219 stress_kbar_3x3="_JSON [[-11.68053763, -0.00077477, -0.00037954], [-0.00077476, -11.82053683, 0.08726973], [-0.00037949, 0.08726973, -17.55711047]]" pbc="T T T"
Ti       2.92669625       0.09840630      27.39643600      -0.00046977      -0.00406302      -0.00105448
Ti       2.93585705       2.93569577      27.39434855      -0.00151220      -0.00272893      -0.00066788
Ti       0.00937324       0.09841684      27.39645449       0.00031558      -0.00403690      -0.00117112
Ti       0.00021674       2.93572236      27.39435394       0.00151357      -0.00281074      -0.00068036
Ti       4.40403955       5.02886272       1.41450179       0.00000107      -0.00586584      -0.00212265
Ti       1.46801711       5.02418565       1.40259781       0.00005210      -0.00187004      -0.00483425
Ti       4.40403572       1.31882315       2.02381802      -0.00001490      -0.00343503      -0.00448232
Ti       1.46802322       1.31747733       2.02442737       0.00005354      -0.00187064       0.00371289
Ti       2.93591207       3.41013796       3.20326602       0.00124678      -0.00200453       0.00200515
Ti       0.00014030       3.41013731       3.20326063      -0.00120821      -0.00198566       0.00202851
Ti       2.93510469       6.22963112       3.61526555       0.00086657      -0.00151546      -0.00048735
Ti       0.00095275       6.22962330       3.61527334      -0.00082174      -0.00148908      -0.00049324
Ti       1.46802830       1.49092870       4.83368911      -0.00007590      -0.00381720      -0.00094914
Ti       4.40403036       1.49257277       4.83453031      -0.00000598      -0.00286380      -0.00157715
Ti       1.46802026       4.43929615       5.43533667      -0.00000123       0.00069196      -0.00267307
Ti       4.40403104       4.44125523       5.43715614       0.00000062      -0.00133892       0.00237842
Ti       2.93645155       6.59483310       6.59817212       0.00205492      -0.00064650       0.00037095
Ti       5.87157313       6.59482961       6.59818051      -0.00209183      -0.00070183       0.00028627
Ti       2.93658971       2.52039381       7.10109014       0.00259584      -0.00048657       0.00105296
Ti       5.87142979       2.52038347       7.10110661      -0.00254741      -0.00042821       0.00100881
Ti       4.40400953       4.67442188       8.26409337      -0.00000830      -0.00294631       0.00005027
Ti       1.46800383       4.67413902       8.25862717       0.00002254      -0.00009129       0.00073581
Ti       4.40397544       0.73303984       8.86984497       0.00008369      -0.00220114       0.00120614
Ti       1.46800233       0.73344712       8.86013741       0.00000376       0.00030753      -0.00161287
Ti       0.00249418       2.88677765      10.08913246      -0.00226121      -0.00134294      -0.00170621
Ti       2.93349098       2.88677976      10.08912982       0.00229894      -0.00131385      -0.00175058
Ti       5.87002028       5.70094266      10.49332231      -0.00253907       0.00050899      -0.00161389
Ti       2.93797968       5.70092707      10.49331919       0.00248968       0.00064290      -0.00159051
Ti       1.46798774       0.90062845      11.66310516       0.00004429      -0.00037099      -0.00333304
Ti       4.40398406       0.90144149      11.68240654       0.00001217      -0.00107348      -0.00065681
Ti       1.46799144       4.09164659      12.30462778      -0.00001948       0.00755262       0.00118938
Ti       4.40395043       4.08559414      12.27913610       0.00033202       0.00089643       0.00415687
Ti       2.90626142       2.11730820      13.69702183      -0.00172486       0.00245675      -0.00324062
Ti       0.02972065       2.11729637      13.69703327       0.00173270       0.00244162      -0.00329013
Ti       2.92613276       6.18157623      13.71835601      -0.00293702       0.00017115       0.00274951
Ti       0.00982046       6.18157900      13.71833617       0.00293342       0.00018774       0.00282304
Ti       4.40399977       4.08093443      15.07666849      -0.00002199      -0.00711006       0.00208482
Ti       1.46799889       4.07640315      15.12677494       0.00004550       0.00138477      -0.00260905
Ti       4.40399685       0.89447017      15.72881480       0.00000961       0.00801686      -0.00139428
Ti       1.46800678       0.90109234      15.75699315      -0.00000619       0.00072386       0.01287001
Ti       2.96988264       5.69382474      16.90923941       0.00578302      -0.00150733       0.00197618
Ti       5.83815984       5.69380549      16.90924680      -0.00598926      -0.00132870       0.00194084
Ti       2.96335728       2.91539724      17.33848198      -0.00049050       0.00713878       0.00050279
Ti       5.84464807       2.91540030      17.33847087       0.00050942       0.00711543       0.00056081
Ti       4.40403039       0.66511026      18.52334403      -0.00002370       0.00625846       0.00517888
Ti       1.46801286       0.79787823      18.54915247       0.00005972       0.00227464       0.00617701
Al       4.40398200       4.71046244      19.13386419      -0.00030833       0.01315779       0.00807100
Ti       1.46799726       4.71919515      19.18195895       0.00018372       0.00046519       0.00013669
Ti       5.84516906       2.54725172      20.29966598       0.00061485       0.00086193      -0.00647630
Ti       2.96286193       2.54723084      20.29967869      -0.00051938       0.00100499      -0.00653385
Ti       0.00386358       6.58177914      20.79083813       0.00113416       0.00122552      -0.00094588
Ti       2.93220746       6.58176966      20.79085351      -0.00121583       0.00112224      -0.00105487
Ti       1.46804573       4.44184434      22.03037239       0.00001909       0.00617242       0.00156244
Ti       4.40404670       4.42263765      21.94216005      -0.00008315       0.00870837      -0.00024364
Ti       1.46807073       1.47500927      22.54108176      -0.00023770       0.00134084       0.00005106
Ti       4.40403802       1.51341737      22.53106560       0.00000674      -0.00359498      -0.00490320
Ti       2.95497825       6.22856916      23.77949889      -0.00271481      -0.00000107       0.00103826
Ti       5.85308565       6.22858437      23.77951496       0.00277532      -0.00013645       0.00085707
Ti       2.95805430       3.39763121      24.19003966       0.00180567      -0.00581812       0.00021944
Ti       5.85001643       3.39761181      24.19004904      -0.00178115      -0.00576992       0.00020297
Ti       4.40399188       1.31125091      25.36957095       0.00008892      -0.00305823      -0.00040097
Ti       1.46804210       1.31743414      25.36754985       0.00001741       0.00169312      -0.00263256
Ti       4.40403487       5.02818342      25.99294573       0.00004520       0.00182853       0.00018446
Ti       1.46802713       5.02225555      25.97058205      -0.00012104      -0.00472766      -0.00218745
