64
Lattice="5.871999 0.0 0.0 0.0 6.890708 0.0 0.0 0.0 27.401158" Properties=species:S:1:pos:R:3:forces:R:3 job_name=T1m-V-V-34-d-0.00 GB_type=T1m element=V system=V-34-d-0.00 distance=0.0 energy=-495.69096353 stress_kbar_3x3="_JSON [[-12.49387805, -0.00131765, -0.0002613], [-0.00131766, -14.04241563, -0.01615938], [-0.00026128, -0.01615939, -20.05305599]]" pbc="T T T"
Ti       2.93616651       0.08867981       0.00002167      -0.00027120       0.01127272      -0.00467926
Ti       2.93606664       2.92550692       0.00032898      -0.00003543      -0.01370749      -0.00353911
Ti       5.87187762       0.09054399       0.00020975       0.00025016       0.01371540      -0.00584133
Ti       0.00002163       2.92713654       0.00039359      -0.00001999      -0.01633662      -0.00349938
Ti       4.40479109       5.01680764       1.41554885      -0.00051308      -0.00171546      -0.01008658
Ti       1.46729199       5.01678957       1.41565060       0.00060507      -0.00149633      -0.01128731
Ti       4.40236963       1.30824289       2.03462964      -0.00012103      -0.00201268       0.00141613
Ti       1.46960873       1.30822515       2.03460739       0.00034339      -0.00243172       0.00084675
Ti       2.93599310       3.40192086       3.21881219       0.00012565      -0.01562960       0.01040999
Ti       0.00009303       3.40158292       3.21920941      -0.00047136      -0.01528804       0.00981671
Ti       2.93605304       6.21429737       3.62465142      -0.00022731       0.00908858       0.00425726
Ti       0.00000127       6.21388876       3.62541197       0.00007257       0.00820165       0.00622309
Ti       1.46780782       1.47720769       4.84969867       0.00227193       0.00159953      -0.00179467
Ti       4.40421906       1.47716127       4.84966075      -0.00214873       0.00173833      -0.00149573
Ti       1.46671125       4.43025681       5.45458278       0.00200758      -0.00038432       0.00408222
Ti       4.40526059       4.43034227       5.45461281      -0.00160686      -0.00099222       0.00384551
Ti       2.93604551       6.58370651       6.62141066      -0.00019434      -0.00526432       0.00526717
Ti       0.00003942       6.58345077       6.62619544       0.00004693      -0.00892763       0.00219739
Ti       2.93602359       2.50521967       7.11811040      -0.00014508      -0.00509759      -0.01007079
Ti       0.00001514       2.50313729       7.11614283       0.00002275       0.00415698      -0.00279187
Ti       4.39480172       4.65073142       8.27777243       0.00330698       0.00764859      -0.01051556
Ti       1.47723952       4.65075817       8.27781410      -0.00344103       0.00745725      -0.01085014
Ti       4.40625017       0.74286727       8.88872725       0.00021359      -0.00380984       0.00344662
Ti       1.46580728       0.74279990       8.88877973      -0.00012502      -0.00343989       0.00276153
Ti       0.00003889       2.87300333      10.14660192      -0.00000352       0.00368423       0.00746668
Ti       2.93600374       2.88108899      10.13452916       0.00009341      -0.00030558       0.01023039
Ti       0.00004993       5.70571736      10.45900278      -0.00020698       0.00877815      -0.00037446
Ti       2.93594404       5.71605907      10.47513614       0.00047450       0.00344335       0.00241149
Ti       1.44824724       0.86914737      11.72818264      -0.00532572      -0.00042649      -0.01216788
Ti       4.42375248       0.86907019      11.72822993       0.00513739      -0.00025106      -0.01252451
Ti       1.52375599       4.19546328      12.31227736       0.00252292       0.00646105      -0.00504269
Ti       4.34834724       4.19531750      12.31231549      -0.00279563       0.00738891      -0.00566317
Ti       2.93589121       2.13912972      13.70036995       0.00031309       0.01472016       0.00527458
Ti       0.00009249       2.23513451      13.70063147      -0.00040007       0.00670750       0.00372909
V        2.93601497       6.21433261      13.70006512       0.00022794      -0.00591620       0.00353939
Ti       0.00000622       6.25776513      13.70057232      -0.00006054      -0.01440334       0.00097663
Ti       4.34815972       4.19569870      15.08912975      -0.00271909       0.00667620       0.00570579
Ti       1.52375380       4.19556919      15.08919509       0.00308372       0.00740229       0.00555426
Ti       4.42372233       0.86820856      15.67300559       0.00554233       0.00237276       0.00989390
Ti       1.44829475       0.86824473      15.67281017      -0.00541701       0.00181850       0.01176449
Ti       2.93606409       5.71574310      16.92658799      -0.00045376       0.00309349      -0.00794221
Ti       5.87192589       5.70544442      16.94279821       0.00046075       0.00907674      -0.00594016
Ti       2.93603280       2.88085069      17.26664341      -0.00008517      -0.00045519      -0.01564059
Ti       0.00007162       2.87326322      17.25450465      -0.00027857      -0.00051909      -0.01307462
Ti       4.40628856       0.74265858      18.51211279       0.00028626      -0.00346103      -0.00572043
Ti       1.46571336       0.74258639      18.51217308      -0.00000777      -0.00315379      -0.00619509
Ti       4.39486684       4.65073383      19.12324256       0.00293710       0.00642696       0.01009211
Ti       1.47710472       4.65078040      19.12316446      -0.00270244       0.00627627       0.01019867
Ti       0.00004046       2.50287831      20.28489076      -0.00020371       0.00545422       0.00306422
Ti       2.93604310       2.50498394      20.28311984      -0.00015822      -0.00390347       0.00983116
Ti       5.87194120       6.58356348      20.77500609       0.00045064      -0.00948854      -0.00172480
Ti       2.93606480       6.58378444      20.77978411      -0.00059016      -0.00601439      -0.00470957
Ti       1.46671383       4.43027838      21.94672717       0.00177772      -0.00008526      -0.00246219
Ti       4.40524245       4.43047339      21.94668981      -0.00164181      -0.00113938      -0.00213276
Ti       1.46770496       1.47711131      22.55157275       0.00293391       0.00250470       0.00554128
Ti       4.40437054       1.47699637      22.55167364      -0.00279733       0.00287933       0.00448301
Ti       2.93598147       6.21438537      23.77667384       0.00006326       0.00952044       0.00090425
Ti       0.00009020       6.21420025      23.77573854      -0.00014937       0.00678508      -0.00061000
Ti       2.93597594       3.40201064      24.18171210      -0.00014146      -0.01509642      -0.00406766
Ti       0.00004449       3.40167112      24.18125713       0.00006713      -0.01412761      -0.00287294
Ti       4.40237488       1.30879424      25.36622569      -0.00009586      -0.00314031       0.00264131
Ti       1.46961221       1.30863476      25.36641027       0.00010573      -0.00270932       0.00134697
Ti       4.40465476       5.01675918      25.98560019      -0.00009002      -0.00273620       0.00707309
Ti       1.46740598       5.01679517      25.98539271      -0.00009973      -0.00248293       0.00902432
