64
Lattice="5.871999 0.0 0.0 0.0 6.890708 0.0 0.0 0.0 27.401158" Properties=species:S:1:pos:R:3:forces:R:3 job_name=T1m-Zr-Zr-45-d-4.84 GB_type=T1m element=Zr system=Zr-45-d-4.84 distance=4.84 energy=-495.66649623 stress_kbar_3x3="_JSON [[-2.47628045, -0.00068011, 7.731e-05], [-0.00068009, -3.088096, -0.15997465], [7.73e-05, -0.15997466, -10.24924591]]" pbc="T T T"
Ti       2.92314876       0.09636457       0.01515862      -0.00045522       0.00406444      -0.00172018
Ti       2.93296916       2.93766734       0.01829260      -0.00146491       0.00146712      -0.00184697
Ti       0.01293223       0.09635546       0.01515066       0.00043702       0.00405822      -0.00152825
Ti       0.00307402       2.93766764       0.01827884       0.00154919       0.00150458      -0.00178401
Ti       4.40400336       5.02760033       1.42193322       0.00004209      -0.00149346       0.00024677
Ti       1.46805424       5.02703362       1.42308855      -0.00005841      -0.00168240       0.00020399
Ti       4.40403651       1.31896213       2.02880346      -0.00002491       0.00145850      -0.00334743
Ti       1.46801988       1.32229986       2.03842963       0.00000559       0.00072043      -0.00275270
Ti       2.93842653       3.41084147       3.20986592      -0.00076436       0.00056914      -0.00250940
Ti       5.86963891       3.41086054       3.20986600       0.00079718       0.00043768      -0.00252052
Ti       2.93586854       6.23124469       3.61852039      -0.00022206      -0.00071763      -0.00132613
Ti       0.00016591       6.23123801       3.61851298       0.00024179      -0.00067342      -0.00134882
Ti       1.46801528       1.49321616       4.83752941       0.00006264      -0.00004252      -0.00086351
Ti       4.40401451       1.49208454       4.83547729       0.00002211      -0.00021629       0.00059487
Ti       1.46803006       4.44187373       5.43315632       0.00008760      -0.00013819       0.00457092
Ti       4.40405394       4.44094119       5.43414432      -0.00014717      -0.00195874       0.00134295
Ti       2.93307894       6.59492871       6.59184128      -0.00132520       0.00146515       0.00325026
Ti       0.00298427       6.59489860       6.59183616       0.00134730       0.00177510       0.00330900
Ti       2.93410758       2.52242598       7.09303145      -0.00057289      -0.00057157       0.00274840
Ti       0.00191400       2.52244423       7.09305127       0.00071950      -0.00081848       0.00262863
Ti       4.40404053       4.67391877       8.25078366      -0.00023374      -0.00152633       0.00328433
Ti       1.46799265       4.67919746       8.24976945       0.00012098      -0.00117993       0.00159141
Ti       4.40399528       0.73367738       8.83519429       0.00014910       0.00179561      -0.00126955
Ti       1.46803372       0.73117693       8.85993339      -0.00009222       0.00229558       0.00372742
Ti       0.00151681       2.88478560      10.06268605       0.00119504       0.00068706       0.00045455
Ti       2.93447004       2.88477613      10.06267464      -0.00110965       0.00088948       0.00049698
Ti       0.01243001       5.70323266      10.47609522       0.00152627      -0.00349399       0.00065587
Ti       2.92355814       5.70324243      10.47611637      -0.00147146      -0.00351401       0.00051515
Ti       1.46798681       0.91236029      11.66702084       0.00002435      -0.00011752       0.00141170
Ti       4.40398530       0.89864822      11.62340926      -0.00005079      -0.00001861      -0.00089932
Ti       1.46798710       4.08153096      12.26787785       0.00000349       0.00076828      -0.00255384
Ti       4.40400042       4.08588593      12.25055605      -0.00002032       0.00167159      -0.00635793
Ti       2.97844305       2.11286378      13.66584126      -0.00283518      -0.00673788       0.00206364
Ti       5.82951456       2.11285326      13.66585088       0.00286811      -0.00671185       0.00196817
Ti       2.94449871       6.17316115      13.66693113      -0.00385664       0.00340035       0.00063799
Ti       5.86352340       6.17315342      13.66691661       0.00389095       0.00338484       0.00068350
Ti       4.40399102       4.07762560      15.05545993       0.00003506       0.00621668       0.00616961
Ti       1.46798877       4.07664780      15.07297598       0.00000613       0.00310837       0.00463708
Ti       4.40400946       0.92143461      15.73782869      -0.00012764      -0.00127103      -0.00219885
Ti       1.46799926       0.91695868      15.64730984      -0.00001682       0.00420622      -0.00750270
Ti       2.94367502       5.68553060      16.85196048       0.00247816      -0.00781465      -0.00551455
Ti       5.86429113       5.68549495      16.85194496      -0.00231301      -0.00747832      -0.00537757
Ti       2.97476064       2.93209193      17.27657289      -0.00353938       0.00228185      -0.00167816
Ti       5.83318544       2.93210565      17.27657462       0.00378675       0.00211018      -0.00168009
Ti       4.40393849       0.75521302      18.57100267       0.00032936      -0.00375736      -0.00387748
Zr       1.46808162       0.74592927      18.55462410      -0.00123292       0.00760647       0.00353559
Ti       4.40401686       4.70667712      19.15578284      -0.00007782      -0.00664816      -0.00209897
Ti       1.46801190       4.62086089      19.12615179      -0.00002253       0.00423674      -0.00442633
Ti       5.82749266       2.55591707      20.35830437       0.00197029       0.00366294       0.00586391
Ti       2.98051678       2.55591898      20.35831059      -0.00179768       0.00370647       0.00578437
Ti       5.83866096       6.57523753      20.87076682      -0.00658187      -0.00241689       0.00486986
Ti       2.96934623       6.57525811      20.87074499       0.00673479      -0.00246738       0.00508703
Ti       1.46803148       4.44879551      21.98554865      -0.00003065      -0.00024977       0.00216305
Ti       4.40403264       4.43040006      22.01034847      -0.00008690       0.00219582      -0.00186892
Ti       1.46803744       1.47607723      22.58059038      -0.00001289       0.00030443      -0.00345088
Ti       4.40402633       1.48534626      22.61982731       0.00007323      -0.00154180      -0.00396490
Ti       2.93285740       6.22896228      23.82061316      -0.00473122      -0.00152171      -0.00052496
Ti       0.00322472       6.22893941      23.82062698       0.00476806      -0.00138723      -0.00060586
Ti       2.93213721       3.40343679      24.22227766      -0.00185993       0.00078606       0.00050237
Ti       0.00394632       3.40344395      24.22229074       0.00192732       0.00066042       0.00044186
Ti       4.40406804       1.32211520      25.41607150      -0.00008300      -0.00027905       0.00266600
Ti       1.46803467       1.32098516      25.38760627       0.00000244       0.00116129       0.00034524
Ti       4.40402676       5.01954357      26.00824119      -0.00001306      -0.00289744       0.00117087
Ti       1.46805310       5.02323218      26.01075680       0.00003058      -0.00331346      -0.00222458
