64
Lattice="5.871999 0.0 0.0 0.0 6.890708 0.0 0.0 0.0 27.401158" Properties=species:S:1:pos:R:3:forces:R:3 job_name=T1m-V-V-48-d-6.60 GB_type=T1m element=V system=V-48-d-6.60 distance=6.6 energy=-495.7601927 stress_kbar_3x3="_JSON [[-13.09602923, -3.41e-06, 0.00010691], [-3.46e-06, -14.06752886, -2.32752606], [0.00010688, -2.32752607, -20.24638818]]" pbc="T T T"
Ti       2.93607789       0.09719991      27.38958646      -0.00022519      -0.00625079       0.00327568
Ti       2.93604780       2.93150233      27.36904347      -0.00019186      -0.01058055      -0.00008293
Ti       5.87199251       0.09451123      27.38763297       0.00026510      -0.01019036       0.00382424
Ti       0.00000295       2.93007707      27.37865485       0.00017303      -0.00756748       0.00311697
Ti       4.40584520       5.01813776       1.39318264       0.00201980      -0.00540108       0.00675467
Ti       1.46619803       5.01818728       1.39315718      -0.00199620      -0.00575532       0.00682447
Ti       4.40502552       1.32222458       2.01408168       0.00147113      -0.00353107       0.00042005
Ti       1.46704297       1.32225237       2.01440633      -0.00152397      -0.00415837      -0.00359597
Ti       2.93601240       3.41089413       3.19836016       0.00034780       0.00467972       0.00563291
Ti       0.00003700       3.41107151       3.19913046      -0.00033282       0.00660294       0.00653816
Ti       2.93604728       6.22753634       3.60124671       0.00001380      -0.00540979       0.00270130
Ti       0.00002410       6.22798180       3.60314096       0.00000241      -0.00798467      -0.00050362
Ti       1.46825031       1.49142367       4.82707067       0.00022195      -0.00073527       0.01365828
Ti       4.40381301       1.49141906       4.82739658      -0.00015904      -0.00056745       0.00977949
Ti       1.46818644       4.44340505       5.43411844       0.00010235       0.00872489       0.00951716
Ti       4.40385032       4.44350443       5.43428317       0.00002511       0.00752479       0.00746625
Ti       2.93610617       6.60022144       6.59780493      -0.00107012       0.00748066       0.00378631
Ti      -0.00005445       6.60011806       6.59822253       0.00103294       0.00595265       0.00419584
Ti       2.93615717       2.52373953       7.10093697      -0.00142752       0.01363450      -0.00546477
Ti      -0.00004936       2.52363901       7.10056099       0.00117116       0.01470239      -0.00152663
Ti       4.40423347       4.68631944       8.26585974       0.00127657       0.01202927      -0.00744928
Ti       1.46780449       4.68642747       8.26603945      -0.00119153       0.01069359      -0.00966786
Ti       4.40403550       0.74131604       8.87235377      -0.00039670       0.01259967      -0.00732416
Ti       1.46797121       0.74129920       8.87254388       0.00060127       0.01298873      -0.00987750
Ti       0.00001408       2.90319102      10.08805938      -0.00017277       0.01613338      -0.00258200
Ti       2.93599840       2.90391864      10.08854597       0.00007580       0.01406829      -0.00649893
Ti       0.00004872       5.72527238      10.50749429      -0.00064448       0.00286086       0.00083887
Ti       2.93597709       5.72435793      10.50868741       0.00055423       0.00291052      -0.00074210
Ti       1.47204227       0.94225390      11.69282073       0.00044431       0.01328963       0.00082652
Ti       4.39994060       0.94232866      11.69307969      -0.00031491       0.01260030      -0.00223267
Ti       1.46501417       4.09419215      12.30793462       0.00219617       0.00525843      -0.01248307
Ti       4.40699973       4.09419877      12.30799281      -0.00220464       0.00539197      -0.01338253
Ti       2.93599962       2.15449845      13.75346345      -0.00023336      -0.00756677       0.01418122
Ti      -0.00000611       2.15186680      13.75114159       0.00021293      -0.01310048       0.00344981
Ti       2.93599643       6.20861588      13.69754035      -0.00006133       0.00516684      -0.00610393
Ti       5.87199573       6.20590752      13.69674927       0.00002615       0.01191100      -0.00801616
Ti       4.41350505       4.14410598      15.13683771       0.00247931       0.00561379       0.00263105
Ti       1.45847942       4.14412890      15.13691196      -0.00245830       0.00526192       0.00169117
Ti       4.39240954       0.88157413      15.75686412       0.00122049      -0.00184410      -0.01593450
Ti       1.47956959       0.88158128      15.75676616      -0.00122257      -0.00202292      -0.01501846
Ti       2.93600829       5.71703373      16.99400555      -0.00001287      -0.00513021       0.01228484
Ti       0.00000492       5.72688049      16.96653109       0.00000453      -0.00510975       0.00588294
Ti       2.93597789       2.88278900      17.28426444       0.00000756      -0.00088814      -0.00887806
Ti      -0.00001623       2.89309220      17.31596935       0.00000010       0.00361470      -0.00328233
Ti       4.41535716       0.78950897      18.58257496       0.00222690      -0.00282559       0.00668858
Ti       1.45666752       0.78948898      18.58258533      -0.00230983      -0.00285831       0.00609626
Ti       4.44679757       4.60575388      19.15240583       0.00514627      -0.00790744       0.00957301
Ti       1.42522511       4.60573943      19.15248977      -0.00524815      -0.00765962       0.00856067
V        0.00008967       2.49779206      20.30451927      -0.00006028      -0.00202658      -0.00184537
Ti       2.93597270       2.48629031      20.31318400       0.00024161      -0.00463531       0.01548922
Ti       0.00000426       6.60978473      20.80766226      -0.00011473      -0.01693719      -0.00903581
Ti       2.93598182       6.53213471      20.77498051       0.00021504      -0.01401313      -0.00274147
Ti       1.43990278       4.39496178      21.93660975       0.00210015      -0.00468656      -0.01632850
Ti       4.43213460       4.39495306      21.93669653      -0.00218047      -0.00435302      -0.01725788
Ti       1.44371246       1.47676741      22.52095336       0.00684129      -0.01026811       0.00052964
Ti       4.42833696       1.47677056      22.52099579      -0.00694213      -0.01045519      -0.00041539
Ti       2.93598964       6.20879702      23.75487308       0.00012467       0.00052171      -0.00602391
Ti       0.00002052       6.20707676      23.74831722       0.00001165      -0.00369452       0.00568363
Ti       2.93601518       3.39404904      24.15512724      -0.00011593      -0.00016788      -0.00750967
Ti       0.00003135       3.38927859      24.18512780       0.00012801      -0.00243972       0.00921764
Ti       4.40032355       1.29858422      25.34925279       0.00238096      -0.01322470       0.00383397
Ti       1.47173660       1.29855716      25.34941102      -0.00243169      -0.01290061       0.00236398
Ti       4.40167874       5.02157131      25.96558549       0.00006831       0.00118037       0.00198872
Ti       1.47036521       5.02153613      25.96554505      -0.00018747       0.00145053       0.00250192
