64
Lattice="5.871999 0.0 0.0 0.0 6.890708 0.0 0.0 0.0 27.401158" Properties=species:S:1:pos:R:3:forces:R:3 job_name=T1m-Zn-Zn-32-d-0.00 GB_type=T1m element=Zn system=Zn-32-d-0.00 distance=0.0 energy=-488.96903099 stress_kbar_3x3="_JSON [[-10.69430124, 0.00025931, 0.00014774], [0.00025928, -13.55994044, -0.00632972], [0.00014772, -0.00632977, -21.89208922]]" pbc="T T T"
Ti       2.93601864       0.10133067      27.40057523       0.00002015       0.00560429      -0.00134393
Ti       2.93604017       2.93852411      27.40070923      -0.00001329       0.00002819      -0.00052310
Ti       0.00002457       0.10216850      27.40058747      -0.00005071       0.00578418      -0.00135108
Ti       0.00003548       2.94074431      -0.00034849      -0.00000410       0.00143263      -0.00069831
Ti       4.40525087       5.02761186       1.41654952      -0.00055412      -0.00280889       0.00990706
Ti       1.46679438       5.02760094       1.41654082       0.00062729      -0.00280347       0.00992431
Ti       4.40073990       1.32228209       2.03480024      -0.00025276       0.00538826       0.00883959
Ti       1.47131340       1.32228830       2.03480069       0.00028470       0.00546015       0.00905041
Ti       2.93604257       3.41356603       3.21575965      -0.00010653      -0.00270898       0.00528507
Ti       0.00001763       3.41068724       3.21279727       0.00012101      -0.00204958       0.00430116
Ti       2.93602902       6.23257449       3.62924364       0.00003375       0.00011586      -0.00282075
Ti       0.00002484       6.23342386       3.63421061      -0.00000115       0.00020069      -0.00448588
Ti       1.46632826       1.50003473       4.85442400       0.00039722       0.00632703      -0.00655503
Ti       4.40573473       1.50003788       4.85444040      -0.00042807       0.00626104      -0.00646299
Ti       1.46606921       4.44222397       5.45376103       0.00017934       0.00030279      -0.00342092
Ti       4.40599003       4.44222475       5.45373764      -0.00019529       0.00037369      -0.00320114
Ti       2.93601933       6.59888393       6.60593749       0.00003902       0.00511917       0.00233390
Ti       0.00001545       6.59744768       6.61289938      -0.00004174      -0.00185518       0.00254532
Ti       2.93602110       2.53569050       7.12286345       0.00003323       0.00015336       0.00059540
Ti       0.00001872       2.52982280       7.13117641      -0.00005557       0.00642129       0.00535213
Ti       4.39680226       4.69774694       8.29008837       0.00183529       0.00078680       0.00735239
Ti       1.47520696       4.69775351       8.29010783      -0.00179292       0.00079881       0.00746985
Ti       4.40468079       0.73077459       8.89383887      -0.00036321      -0.00586394       0.00959325
Ti       1.46731564       0.73079096       8.89384613       0.00041799      -0.00590879       0.00975363
Ti       5.87198577       2.87156378      10.10556068       0.00002079       0.00741858       0.00576400
Ti       2.93600037       2.90501802      10.04773234      -0.00003986       0.00228253       0.00456363
Ti      -0.00000159       5.69707314      10.53337683       0.00004415      -0.00422516      -0.01206087
Ti       2.93600712       5.74725023      10.58943298      -0.00010052       0.01037908      -0.00203615
Ti       1.48234432       0.92566808      11.72503031       0.00894919      -0.00865880      -0.01292165
Ti       4.38962843       0.92565239      11.72501452      -0.00887109      -0.00845609      -0.01268032
Ti       1.49606583       4.03880966      12.29846400      -0.00025923      -0.00459238       0.00856810
Ti       4.37592381       4.03882747      12.29845930       0.00027063      -0.00475824       0.00876185
Zn       2.93600082       2.14431449      13.70077326       0.00004211      -0.00954299      -0.00049520
Ti       0.00000435       2.02094874      13.70039817      -0.00012209       0.01925222       0.00156124
Ti       2.93599128       6.18909128      13.70033251      -0.00003342      -0.01534524       0.00179456
Ti      -0.00000044       6.08116069      13.70056495       0.00000738      -0.01402552       0.00073876
Ti       4.37605193       4.03878669      15.10294369      -0.00014193      -0.00411964      -0.00651895
Ti       1.49595119       4.03876784      15.10294421       0.00015927      -0.00393783      -0.00631857
Ti       4.38970259       0.92568762      15.67642523      -0.00866011      -0.00876232       0.01343019
Ti       1.48231703       0.92567644      15.67644441       0.00868044      -0.00881777       0.01354127
Ti       2.93602134       5.74711477      16.81271763      -0.00008221       0.01051889       0.00068757
Ti       0.00000383       5.69711849      16.86843964       0.00006927      -0.00434347       0.01131551
Ti       2.93601081       2.90514888      17.35407564      -0.00001752       0.00241307      -0.00579112
Ti       0.00000820       2.87175506      17.29638163       0.00002178       0.00696547      -0.00706997
Ti       4.40468201       0.73087140      18.50784314      -0.00028494      -0.00571212      -0.01128099
Ti       1.46734399       0.73088000      18.50785933       0.00026091      -0.00574288      -0.01132822
Ti       4.39682532       4.69778983      19.11137850       0.00160837       0.00013707      -0.00952008
Ti       1.47521680       4.69778123      19.11136743      -0.00166978       0.00016313      -0.00955072
Ti       0.00000676       2.52988541      20.27002611       0.00001422       0.00618123      -0.00689565
Ti       2.93601923       2.53576953      20.27847818       0.00000815       0.00002714      -0.00290670
Ti       5.87197986       6.59736750      20.78817831       0.00012321      -0.00120110      -0.00352513
Ti       2.93602807       6.59881634      20.79509558      -0.00007714       0.00561282      -0.00326856
Ti       1.46599586       4.44219583      21.94731989       0.00044666       0.00020337       0.00399181
Ti       4.40604568       4.44217337      21.94734166      -0.00045706       0.00020012       0.00397539
Ti       1.46630018       1.49996231      22.54640615       0.00036393       0.00668125       0.00846530
Ti       4.40571773       1.49997006      22.54645818      -0.00031288       0.00667955       0.00846247
Ti       2.93602770       6.23270345      23.77180659      -0.00000948       0.00041282       0.00495958
Ti       0.00004232       6.23355577      23.76686979      -0.00006936       0.00046596       0.00655274
Ti       2.93601339       3.41357859      24.18504991       0.00002046      -0.00330196      -0.00311111
Ti       0.00004341       3.41070920      24.18810721      -0.00003579      -0.00287481      -0.00225225
Ti       4.40071518       1.32250056      25.36580307      -0.00020906       0.00607381      -0.00895054
Ti       1.47135851       1.32249355      25.36577763       0.00021334       0.00604639      -0.00883024
Ti       4.40529089       5.02744441      25.98409463      -0.00070407      -0.00302580      -0.01061241
Ti       1.46675665       5.02747590      25.98409389       0.00070374      -0.00322982      -0.01064894
