64
Lattice="5.871999 0.0 0.0 0.0 6.890708 0.0 0.0 0.0 27.401158" Properties=species:S:1:pos:R:3:forces:R:3 job_name=T1m-V-V-35-d-0.00 GB_type=T1m element=V system=V-35-d-0.00 distance=0.0 energy=-495.69177343 stress_kbar_3x3="_JSON [[-12.90401534, 0.00017843, -0.00054544], [0.00017845, -14.45522151, -0.0010313], [-0.00054542, -0.00103131, -20.38348472]]" pbc="T T T"
Ti       2.93604604       0.08455479       0.00014138      -0.00005379      -0.00234694      -0.00109348
Ti       2.93600703       2.91682690       0.00015460       0.00004911      -0.00174807      -0.00058622
Ti       0.00000672       0.08229877       0.00014529      -0.00000594      -0.00282847      -0.00118858
Ti       0.00002447       2.91539193       0.00028488      -0.00007560      -0.00070420      -0.00076246
Ti       4.40324576       5.00952969       1.41445695       0.00006172       0.00198231      -0.00542996
Ti       1.46874656       5.00952623       1.41443290      -0.00001871       0.00205199      -0.00558180
Ti       4.40531755       1.30066944       2.03564498       0.00034733      -0.00179212      -0.00498205
Ti       1.46671100       1.30069899       2.03562485      -0.00037923      -0.00188971      -0.00506718
Ti       2.93597989       3.39421096       3.21964504       0.00009632      -0.00248564       0.00189695
Ti      -0.00001484       3.39403773       3.21944797       0.00005711      -0.00059910       0.00245637
Ti       2.93603251       6.20921489       3.62763336      -0.00001562       0.00190145      -0.00600517
Ti       0.00000062       6.20933713       3.62552815      -0.00001335       0.00175601      -0.00463098
Ti       1.46830534       1.47165935       4.85020151       0.00018973       0.00050931       0.00244771
Ti       4.40370273       1.47166049       4.85024743      -0.00016667       0.00048321       0.00226580
Ti       1.46909172       4.42913536       5.45630495      -0.00054557      -0.00198829       0.00424781
Ti       4.40290061       4.42912933       5.45629793       0.00053516      -0.00200708       0.00402569
Ti       2.93598512       6.58109127       6.63033419      -0.00006723      -0.00093900       0.00219827
Ti       0.00001484       6.58120145       6.62531452       0.00014199      -0.00287265       0.00327689
Ti       2.93597687       2.50413726       7.11762480      -0.00001728      -0.00067460      -0.00161540
Ti      -0.00000634       2.50468381       7.11773935       0.00007858       0.00318021       0.00032332
Ti       4.41289331       4.65071278       8.27872743       0.00106117      -0.00059488      -0.00668478
Ti       1.45911494       4.65068072       8.27871833      -0.00090906      -0.00032434      -0.00677989
Ti       4.40126999       0.74869624       8.89075092      -0.00068000      -0.00034996      -0.00460023
Ti       1.47074600       0.74871240       8.89074338       0.00072139      -0.00043091      -0.00475976
Ti       0.00003281       2.88542433      10.14021212      -0.00001743       0.00197445      -0.00472344
Ti       2.93607962       2.87836627      10.15343145      -0.00003630      -0.00219552      -0.00632010
Ti      -0.00000276       5.72240542      10.47153860      -0.00001297      -0.00016196       0.00102983
Ti       2.93600906       5.71249790      10.45540083       0.00007313       0.00350538       0.00199913
Ti       1.48794180       0.87289273      11.72897976       0.00106884       0.00574345       0.00204846
Ti       4.38411941       0.87294877      11.72900182      -0.00118845       0.00569203       0.00198623
Ti       1.41170853       4.20809571      12.31078476       0.00091683      -0.00374946       0.00912367
Ti       4.46037194       4.20801797      12.31074251      -0.00092577      -0.00346725       0.00908684
Ti       2.93604812       2.24704845      13.70022089      -0.00008012      -0.00054597       0.00085201
Ti       0.00002888       2.15124263      13.70020349       0.00004751       0.00433736       0.00113665
Ti       2.93598762       6.26553874      13.70024163       0.00006301       0.00010353       0.00060697
V        0.00004397       6.22426636      13.70000026      -0.00001714      -0.00127865       0.00080339
Ti       4.46034093       4.20797496      15.08969876      -0.00072785      -0.00295966      -0.00819837
Ti       1.41169828       4.20802611      15.08971398       0.00063761      -0.00314239      -0.00839109
Ti       4.38418650       0.87276110      15.67137412      -0.00109740       0.00571420      -0.00159046
Ti       1.48787409       0.87274859      15.67141248       0.00114175       0.00584692      -0.00198617
Ti       2.93601939       5.71242343      16.94523335       0.00009961       0.00364543      -0.00205856
Ti       0.00002204       5.72225451      16.92923019      -0.00009685      -0.00099280      -0.00207417
Ti       2.93602191       2.87826749      17.24721698       0.00001464      -0.00216882       0.00579953
Ti       0.00000939       2.88527330      17.26043783       0.00003880       0.00222685       0.00439993
Ti       4.40131918       0.74855644      18.51006914      -0.00054520      -0.00016588       0.00454449
Ti       1.47075319       0.74853135      18.51009962       0.00046406      -0.00004492       0.00496060
Ti       4.41282152       4.65062664      19.12242255       0.00121021      -0.00045830       0.00640011
Ti       1.45917276       4.65065204      19.12246262      -0.00126503      -0.00079634       0.00673739
Ti       0.00000191       2.50456077      20.28351174       0.00036540       0.00304154      -0.00051305
Ti       2.93599962       2.50410045      20.28364954      -0.00025171      -0.00119824       0.00144438
Ti       0.00003135       6.58126049      20.77613458       0.00022921      -0.00237806      -0.00378832
Ti       2.93603293       6.58119827      20.77113708      -0.00033413      -0.00078027      -0.00267266
Ti       1.46917107       4.42914206      21.94521748      -0.00065062      -0.00194199      -0.00441343
Ti       4.40293863       4.42916139      21.94514326       0.00043857      -0.00211234      -0.00392466
Ti       1.46820575       1.47174433      22.55149218       0.00042619       0.00055126      -0.00291239
Ti       4.40378982       1.47178487      22.55145550      -0.00040023       0.00036093      -0.00245294
Ti       2.93600506       6.20932124      23.77412705       0.00006438       0.00182718       0.00668928
Ti      -0.00003260       6.20933099      23.77626379       0.00000464       0.00152274       0.00539616
Ti       2.93604735       3.39423050      24.18194911       0.00003196      -0.00176737      -0.00102129
Ti       0.00001882       3.39407656      24.18220239      -0.00009904       0.00056692      -0.00150120
Ti       4.40536788       1.30084877      25.36601993       0.00012293      -0.00213528       0.00510741
Ti       1.46663262       1.30089775      25.36606078      -0.00003062      -0.00236149       0.00532715
Ti       4.40326239       5.00966529      25.98706652       0.00015750       0.00140805       0.00475088
Ti       1.46878325       5.00962981      25.98703425      -0.00023148       0.00144623       0.00494093
