64
Lattice="5.871999 0.0 0.0 0.0 6.890708 0.0 0.0 0.0 27.401158" Properties=species:S:1:pos:R:3:forces:R:3 job_name=T1m-Cu-Cu-32-d-0.00 GB_type=T1m element=Cu system=Cu-32-d-0.00 distance=0.0 energy=-491.34289547 stress_kbar_3x3="_JSON [[-12.87694686, -0.00069832, 9.872e-05], [-0.00069834, -16.7792117, 0.00239562], [9.872e-05, 0.00239563, -26.15521081]]" pbc="T T T"
Ti       2.93608187       0.10491203      27.40107137      -0.00018290       0.00887066       0.00181411
Ti       2.93605652       2.94108981      27.40107077      -0.00005472      -0.00137471       0.00128507
Ti       5.87195088       0.10534627       0.00000736       0.00022238       0.00895576       0.00128033
Ti       0.00002408       2.94427455      27.40110895       0.00003537      -0.00418999       0.00123998
Ti       4.40462066       5.03304280       1.41898298       0.00020232      -0.00001415       0.00582239
Ti       1.46747090       5.03303606       1.41895294      -0.00043677      -0.00014673       0.00610763
Ti       4.40065315       1.32188251       2.03937414      -0.00002709       0.00344498       0.00520418
Ti       1.47137510       1.32187064       2.03933325       0.00003660       0.00359554       0.00545877
Ti       2.93606371       3.41684986       3.22205680      -0.00025336       0.00265097       0.00520968
Ti       5.87198282       3.41398202       3.21686948       0.00030672       0.00417021       0.00787685
Ti       2.93605470       6.23313144       3.63479653      -0.00016621       0.00598086       0.00109295
Ti       5.87197739       6.23517789       3.64112435       0.00027205       0.00453686       0.00227043
Ti       1.46578684       1.50535730       4.86480398      -0.00067019       0.00212119       0.00090012
Ti       4.40625762       1.50535882       4.86476280       0.00051548       0.00226943       0.00126863
Ti       1.46584530       4.44427370       5.46648033      -0.00092131       0.00171059       0.00000623
Ti       4.40621283       4.44421408       5.46649026       0.00088055       0.00201775       0.00003085
Ti       2.93602643       6.60669695       6.61983577       0.00001000       0.00344708       0.00010046
Ti       0.00000146       6.60479645       6.62841796      -0.00001424       0.00461253       0.00030283
Ti       2.93601064       2.53940895       7.13700391       0.00005885       0.00162264       0.00195451
Ti       0.00000957       2.53464074       7.15165901      -0.00011718      -0.00050491       0.00468941
Ti       4.39804205       4.71259085       8.31054010       0.00163051      -0.00357034       0.00477790
Ti       1.47393190       4.71254408       8.31056872      -0.00149550      -0.00332976       0.00474283
Ti       4.40283736       0.72289131       8.91164369       0.00157788       0.00269729       0.00692890
Ti       1.46913857       0.72292565       8.91162384      -0.00149282       0.00267824       0.00733058
Ti       5.87193680       2.87501337      10.13259596       0.00032860      -0.00219381       0.00626926
Ti       2.93604184       2.91300631      10.05653849      -0.00033575      -0.00937352       0.00468609
Ti       5.87198118       5.69672010      10.56097539       0.00008139      -0.01016106       0.00169844
Ti       2.93601748       5.74269881      10.62644354      -0.00018895      -0.00156177       0.00297024
Ti       1.50754706       0.94852118      11.74938548      -0.00076907       0.00097335       0.00130996
Ti       4.36446328       0.94851925      11.74929732       0.00073365       0.00108018       0.00181368
Ti       1.51424025       4.00066640      12.31465002      -0.00195539      -0.01092268      -0.00039711
Ti       4.35772042       4.00065532      12.31461115       0.00217002      -0.01083519      -0.00002543
Cu       2.93600911       2.11568955      13.70048401      -0.00000903      -0.00367937       0.00003177
Ti       5.87199027       1.98630135      13.70059364      -0.00007171      -0.00362585      -0.00075473
Ti       2.93601846       6.17476552      13.70061074      -0.00013485       0.00298903      -0.00062065
Ti       5.87198632       6.05131680      13.70059477       0.00013482      -0.00226625      -0.00061355
Ti       4.35766841       4.00072157      15.08652343       0.00234893      -0.01150117      -0.00107845
Ti       1.51431675       4.00070461      15.08654372      -0.00224422      -0.01133054      -0.00110365
Ti       4.36436556       0.94852867      15.65190635       0.00129075       0.00146574      -0.00277867
Ti       1.50765653       0.94855692      15.65187405      -0.00136669       0.00113572      -0.00256347
Ti       2.93603861       5.74267663      16.77474699      -0.00018965      -0.00147456      -0.00267947
Ti       5.87198325       5.69677729      16.84021372       0.00025303      -0.00996584      -0.00186773
Ti       2.93601980       2.91307240      17.34481069      -0.00003206      -0.00932547      -0.00473219
Ti       5.87199833       2.87506750      17.26861064       0.00001219      -0.00217150      -0.00580987
Ti       4.40285058       0.72294835      18.48956069       0.00153037       0.00251502      -0.00563529
Ti       1.46917549       0.72296204      18.48958656      -0.00145005       0.00247130      -0.00576421
Ti       4.39802167       4.71268039      19.09059074       0.00186196      -0.00331770      -0.00305505
Ti       1.47400420       4.71266658      19.09055843      -0.00188442      -0.00318115      -0.00305260
Ti       0.00001442       2.53472712      20.24945946       0.00006312      -0.00075883      -0.00310682
Ti       2.93602399       2.53945170      20.26420084      -0.00001617       0.00154862      -0.00073906
Ti       0.00001216       6.60486396      20.77267801       0.00011024       0.00455570       0.00047780
Ti       2.93604327       6.60680403      20.78127214      -0.00006370       0.00321253       0.00078147
Ti       1.46588086       4.44418727      21.93463376      -0.00110912       0.00259228      -0.00060751
Ti       4.40620212       4.44417872      21.93466155       0.00101770       0.00253506      -0.00083461
Ti       1.46581701       1.50547135      22.53634251      -0.00087412       0.00152608      -0.00260952
Ti       4.40624959       1.50545335      22.53638491       0.00084394       0.00176492      -0.00284903
Ti       2.93606453       6.23315095      23.76639343      -0.00021873       0.00609919      -0.00315866
Ti       5.87198442       6.23520342      23.76001200       0.00030753       0.00474458      -0.00412758
Ti       2.93605678       3.41683587      24.17908301      -0.00010947       0.00273235      -0.00706724
Ti       0.00000824       3.41396048      24.18429552       0.00017866       0.00428751      -0.00977871
Ti       4.40068105       1.32191890      25.36182319       0.00003614       0.00320767      -0.00562500
Ti       1.47139067       1.32197087      25.36181838      -0.00006631       0.00297238      -0.00548046
Ti       4.40457767       5.03293482      25.98213557       0.00041253       0.00055611      -0.00451213
Ti       1.46748170       5.03294815      25.98213393      -0.00054251       0.00042896      -0.00470591
