64
Lattice="5.871999 0.0 0.0 0.0 6.890708 0.0 0.0 0.0 27.401158" Properties=species:S:1:pos:R:3:forces:R:3 job_name=T1m-Zr-Zr-41-d-3.20 GB_type=T1m element=Zr system=Zr-41-d-3.20 distance=3.2 energy=-495.61545619 stress_kbar_3x3="_JSON [[-2.30080812, 0.00095617, -0.00111378], [0.0009562, -3.41108149, 0.97974407], [-0.00111376, 0.97974407, -10.33691574]]" pbc="T T T"
Ti       2.93604593       0.09693392       0.01114137      -0.00003870      -0.00099613      -0.00199779
Ti       2.93604739       2.93709997       0.01762823      -0.00002279       0.00054708      -0.00464004
Ti       0.00011330       0.09693118       0.01345517      -0.00003247      -0.00084571      -0.00283168
Ti       0.00005288       2.93830066       0.01795353      -0.00003969       0.00069503      -0.00297984
Ti       4.40331422       5.02916288       1.42134389      -0.00008473      -0.00519323      -0.00096106
Ti       1.46873344       5.02917528       1.42134461       0.00007379      -0.00523790      -0.00097159
Ti       4.40432044       1.31875342       2.02813623       0.00008063       0.00000592      -0.00438473
Ti       1.46784529       1.31873120       2.02815216      -0.00014273       0.00003930      -0.00439007
Ti       2.93604259       3.40872413       3.20441436      -0.00005313       0.00177743      -0.00665754
Ti       0.00002345       3.40865258       3.20642627       0.00005641       0.00216075      -0.00609302
Ti       2.93602567       6.23241443       3.61358471      -0.00001080      -0.00218939      -0.00467706
Ti       0.00003797       6.23234397       3.61366332      -0.00006593      -0.00202510      -0.00534512
Ti       1.46928227       1.49062365       4.82891447      -0.00022478       0.00067913      -0.00695264
Ti       4.40271770       1.49057408       4.82891351       0.00018748       0.00067940      -0.00687438
Ti       1.47059589       4.44026848       5.42532848      -0.00067192      -0.00121823      -0.00993572
Ti       4.40148917       4.44027740       5.42532813       0.00061761      -0.00120839      -0.00989502
Ti       2.93603477       6.59347750       6.58342391       0.00008438       0.00158233      -0.00190571
Ti       0.00000377       6.58946232       6.58451146      -0.00008702       0.00198265      -0.00164062
Ti       2.93604886       2.51793167       7.08626725      -0.00002989      -0.00327667       0.00090439
Ti       0.00004303       2.51937710       7.07598739      -0.00006936      -0.00246610       0.00094975
Ti       4.40186360       4.66335208       8.23729293       0.00043692       0.00070061       0.00706858
Ti       1.47017088       4.66336998       8.23726964      -0.00046439       0.00057976       0.00711104
Ti       4.40214812       0.73558204       8.83619941      -0.00099151      -0.00388946       0.00273470
Ti       1.46989512       0.73558244       8.83617576       0.00095160      -0.00372883       0.00266168
Ti       0.00002306       2.87470710      10.05964257      -0.00002596       0.00402217       0.00373975
Ti       2.93598587       2.87800141      10.08146570      -0.00002225       0.00107357       0.00248887
Ti       0.00003131       5.68761692      10.44308286      -0.00005419      -0.00326039       0.00384659
Ti       2.93603004       5.69732712      10.45042262       0.00005411      -0.00278440       0.00188368
Ti       1.45671889       0.87475765      11.62933317       0.00495174      -0.00280168       0.00919203
Ti       4.41532468       0.87478588      11.62942927      -0.00503773      -0.00292255       0.00918212
Ti       1.45176384       4.10518438      12.24830623       0.00511550       0.00669717       0.00185022
Ti       4.42028910       4.10516893      12.24823420      -0.00518726       0.00683372       0.00179103
Ti       2.93590273       2.11890741      13.58249242      -0.00021779      -0.00683072       0.00746497
Ti       0.00007456       2.10694066      13.65059408       0.00022019      -0.00822351       0.00401532
Ti       2.93596967       6.17923677      13.70993713       0.00001520       0.00431771       0.00495573
Ti      -0.00003293       6.16495214      13.64642793       0.00003228       0.00219890       0.00458322
Ti       4.37272886       4.03149030      15.06516640       0.00583882       0.00859485       0.00172565
Ti       1.49920179       4.03144853      15.06521810      -0.00598565       0.00850693       0.00175407
Ti       4.34074699       1.00326275      15.69757304       0.00628078      -0.00870758      -0.00790837
Ti       1.53123767       1.00329453      15.69762973      -0.00630283      -0.00863981      -0.00795616
Ti       2.93599238       5.74013920      16.91023832      -0.00002658       0.00290671      -0.01117586
Zr      -0.00028845       5.75073396      16.90016445       0.00129990       0.00671491       0.00354187
Ti       2.93602061       2.94249578      17.35779365      -0.00006078      -0.00324931      -0.00463916
Ti       0.00000174       2.84590014      17.32153569       0.00020817       0.00660212      -0.00157252
Ti       4.36353967       0.77763805      18.58212716       0.00726281      -0.00472467      -0.01331971
Ti       1.50845798       0.77761800      18.58213259      -0.00737936      -0.00439214      -0.01303688
Ti       4.37403180       4.66253680      19.20708273       0.00821827       0.00544485      -0.01201626
Ti       1.49784572       4.66251978      19.20706387      -0.00828775       0.00535071      -0.01204368
Ti      -0.00004494       2.52467352      20.34062811       0.00013659      -0.00236093       0.00069137
Ti       2.93597653       2.51834713      20.35728010      -0.00022754      -0.00106975      -0.00249114
Ti       0.00002024       6.58614525      20.82206969       0.00007563       0.00107832       0.00686582
Ti       2.93604091       6.58984259      20.84789892      -0.00002361       0.00450268       0.00616745
Ti       1.46380058       4.44228999      22.00570570      -0.00073856       0.00261805       0.01154730
Ti       4.40835143       4.44229441      22.00575206       0.00067497       0.00261768       0.01156052
Ti       1.46384493       1.47630817      22.59887023      -0.00053074       0.00052033       0.00950742
Ti       4.40813601       1.47628560      22.59889590       0.00039720       0.00048823       0.00958230
Ti       2.93603423       6.22245259      23.82686860       0.00004492      -0.00011431       0.00498523
Ti       0.00003791       6.22121679      23.81387741      -0.00006234      -0.00100520       0.00694976
Ti       2.93602273       3.40167546      24.21649181      -0.00000915       0.00061069       0.00891969
Ti       0.00003738       3.40386011      24.22405912      -0.00004183       0.00148486       0.00712092
Ti       4.40472687       1.31907880      25.39821564       0.00028789       0.00015170       0.00468710
Ti       1.46740294       1.31909795      25.39816785      -0.00032805       0.00007588       0.00471322
Ti       4.40481889       5.01913553      26.01200597       0.00044859      -0.00071534      -0.00379008
Ti       1.46726253       5.01912219      26.01200280      -0.00047259      -0.00076472      -0.00365987
