64
Lattice="5.871999 0.0 0.0 0.0 6.890708 0.0 0.0 0.0 27.401158" Properties=species:S:1:pos:R:3:forces:R:3 job_name=T1m-Al-Al-45-d-4.84 GB_type=T1m element=Al system=Al-45-d-4.84 distance=4.84 energy=-492.02662491 stress_kbar_3x3="_JSON [[-11.39035786, -1.2e-05, -0.00028161], [-1.198e-05, -12.23341731, 0.35045316], [-0.00028158, 0.35045315, -17.79609327]]" pbc="T T T"
Ti       2.94377842       0.10894930      27.40006619       0.00554626      -0.00140719      -0.00151767
Ti       2.93826098       2.94420149      27.39830098       0.00095511      -0.00037561      -0.00126152
Ti       5.86428935       0.10893739      27.40006518      -0.00562509      -0.00130905      -0.00153359
Ti       5.86979952       2.94420417      27.39831233      -0.00096281      -0.00043785      -0.00126757
Ti       4.40402476       5.03288674       1.41413141       0.00005338       0.00126343       0.00084370
Ti       1.46802807       5.03098666       1.40925664       0.00004484       0.00304370       0.00047495
Ti       4.40404078       1.32229897       2.03240182       0.00001463       0.00161181       0.00313442
Ti       1.46803246       1.32135546       2.02393701      -0.00008017       0.00007867      -0.00104179
Ti       2.93407644       3.41312159       3.20617400      -0.00101187      -0.00020041       0.00191154
Ti       0.00199869       3.41312225       3.20617013       0.00100402      -0.00025365       0.00193893
Ti       2.93601595       6.23009425       3.61844477      -0.00011330       0.00195645      -0.00031135
Ti       0.00006500       6.23008877       3.61844138       0.00010652       0.00201787      -0.00027469
Ti       1.46803111       1.49189424       4.83584432      -0.00000615      -0.00013353      -0.00159863
Ti       4.40402864       1.49270405       4.84000344       0.00005630      -0.00077361      -0.00132237
Ti       1.46803493       4.44018444       5.43844888       0.00005163      -0.00062847       0.00157096
Ti       4.40403764       4.44170818       5.44058186      -0.00005157      -0.00112329      -0.00019565
Ti       2.93723206       6.59537563       6.60291165       0.00005621       0.00080985       0.00271707
Ti       5.87080177       6.59537185       6.60291519      -0.00003167       0.00085858       0.00270287
Ti       2.93711121       2.52022874       7.10494610       0.00014320       0.00035426      -0.00017311
Ti       5.87093842       2.52023129       7.10494745      -0.00012905       0.00032037      -0.00013950
Ti       4.40400626       4.67527297       8.26566034       0.00000449       0.00254688       0.00168541
Ti       1.46800931       4.67228102       8.26180449      -0.00007424       0.00215608       0.00304634
Ti       4.40400372       0.73444430       8.87809302      -0.00005349       0.00227187       0.00463123
Ti       1.46800668       0.73679864       8.85940579       0.00003481       0.00300188       0.00150466
Ti       0.00027110       2.89015226      10.09701262      -0.00083550       0.00274213       0.00056565
Ti       2.93568912       2.89016025      10.09699872       0.00098049       0.00267864       0.00072017
Ti       5.86448369       5.70638498      10.49176603      -0.00147411       0.00498392       0.00127760
Ti       2.94351449       5.70637191      10.49176201       0.00155041       0.00504488       0.00132341
Ti       1.46800626       0.89761294      11.66221786       0.00001512       0.00295014       0.00176943
Ti       4.40399222       0.90816762      11.69680512      -0.00009184       0.00269188       0.00503382
Ti       1.46799368       4.10519092      12.30086149       0.00000396       0.00654634       0.00039163
Ti       4.40398248       4.09403274      12.29172518      -0.00001104       0.00480333       0.00084683
Ti       2.89365256       2.14168333      13.69873681      -0.00550868      -0.00004336       0.00341315
Ti       0.04232365       2.14167881      13.69872774       0.00559821      -0.00003521       0.00354075
Ti       2.91953008       6.18193870      13.70349854      -0.00178662       0.00624831      -0.00042780
Ti       0.01641795       6.18192344      13.70350348       0.00181478       0.00636953      -0.00030768
Ti       4.40399300       4.10264993      15.13434722      -0.00001890       0.00503197       0.00139320
Ti       1.46798367       4.08502129      15.14833215      -0.00003110       0.00902957      -0.00020850
Ti       4.40398426       0.88441944      15.65612231       0.00005717      -0.00725816      -0.00299814
Ti       1.46800706       0.90791359      15.74864402      -0.00005549      -0.00794884      -0.00117579
Ti       2.94400798       5.72336472      16.92838550      -0.00058681      -0.00087725       0.00042659
Ti       5.86399233       5.72337362      16.92840357       0.00062489      -0.00097016       0.00032737
Ti       2.91469993       2.85077483      17.31296559      -0.00005272      -0.00190952      -0.00316252
Ti       0.02128262       2.85076446      17.31294285       0.00003254      -0.00189643      -0.00303745
Ti       4.40400190       0.69225483      18.49541425       0.00008101      -0.00324597       0.00255066
Al       1.46800951       0.70356396      18.54936439      -0.00006097      -0.00725032      -0.00590192
Ti       4.40400756       4.60135189      19.12981902       0.00001113       0.00392272      -0.00392367
Ti       1.46801282       4.72059001      19.15444052       0.00000155      -0.00576881      -0.00578829
Ti       0.02899477       2.49062779      20.28922115      -0.00208281      -0.00539360       0.00123906
Ti       2.90705237       2.49061958      20.28922447       0.00203675      -0.00532514       0.00127239
Ti       0.01997418       6.59926059      20.79395694      -0.00046556      -0.00615618      -0.00068397
Ti       2.91607884       6.59926196      20.79393798       0.00047566      -0.00620036      -0.00058506
Ti       1.46803935       4.45228514      21.95032798      -0.00002693      -0.00401883       0.00170229
Ti       4.40403920       4.44683854      21.93974242      -0.00001104      -0.00134399      -0.00049964
Ti       1.46802551       1.50993088      22.59615961      -0.00002658      -0.00519115       0.00017045
Ti       4.40402338       1.49739442      22.55335965      -0.00004425      -0.00499095       0.00135218
Ti       2.94211072       6.22618334      23.76677455      -0.00115803       0.00001613      -0.00072643
Ti       5.86593120       6.22617949      23.76677622       0.00119671       0.00005870      -0.00070545
Ti       2.93762420       3.42075744      24.19453721      -0.00113180      -0.00096663      -0.00008903
Ti       5.87045589       3.42075326      24.19454980       0.00098721      -0.00104682      -0.00011302
Ti       4.40403468       1.31885427      25.35726129       0.00005702      -0.00138686      -0.00469393
Ti       1.46803861       1.32309166      25.38305209      -0.00000461      -0.00318479      -0.00280524
Ti       4.40401776       5.03835891      25.99092732       0.00005336       0.00065027      -0.00415890
Ti       1.46802179       5.03711256      25.98550198      -0.00004460       0.00299185      -0.00284882
