64
Lattice="5.871999 0.0 0.0 0.0 6.890708 0.0 0.0 0.0 27.401158" Properties=species:S:1:pos:R:3:forces:R:3 job_name=T1m-Al-Al-37-d-1.42 GB_type=T1m element=Al system=Al-37-d-1.42 distance=1.42 energy=-492.05278475 stress_kbar_3x3="_JSON [[-9.81166018, 0.00081117, 0.00022057], [0.00081114, -13.82726548, 1.52379253], [0.0002206, 1.5237925, -16.11042892]]" pbc="T T T"
Ti       2.93238764       0.10403639      27.40080683      -0.00257280       0.00306183      -0.00129408
Ti       2.93527171       2.94032321       0.00118699      -0.00010430      -0.00388502       0.00144396
Ti       0.00369729       0.10403229      27.40078421       0.00260486       0.00308530      -0.00128105
Ti       0.00078075       2.94031167       0.00119532       0.00012248      -0.00388069       0.00143945
Ti       4.40403586       5.03165196       1.41345585      -0.00003228      -0.00116237       0.00453245
Ti       1.46800793       5.03073669       1.41301338       0.00008540      -0.00333107       0.00707042
Ti       4.40406641       1.31924445       2.02873350      -0.00000698      -0.00041747       0.00485938
Ti       1.46801595       1.31883193       2.02764029      -0.00005316       0.00260793       0.00696446
Ti       2.93772516       3.41228743       3.20710434       0.00010627      -0.00100987       0.00912367
Ti       5.87032828       3.41230912       3.20708848      -0.00015816      -0.00119763       0.00914228
Ti       2.93752117       6.23120107       3.61940803      -0.00072282      -0.00410493       0.00844226
Ti       5.87054431       6.23119753       3.61942823       0.00058648      -0.00405061       0.00838896
Ti       1.46801250       1.49387186       4.83845497       0.00004239      -0.00079782       0.00198985
Ti       4.40403164       1.49469532       4.84158134      -0.00001897      -0.00049801       0.00290377
Ti       1.46802846       4.43997424       5.43360733      -0.00003540      -0.00009493       0.00020281
Ti       4.40401167       4.43843380       5.44742386       0.00003601       0.00035059      -0.00250251
Ti       2.93393560       6.59410132       6.59819774      -0.00057332       0.00155073      -0.00399025
Ti       0.00208675       6.59409740       6.59820641       0.00057870       0.00160889      -0.00399684
Ti       2.93555742       2.52185500       7.10439213      -0.00096675      -0.00017236       0.00092741
Ti       0.00046790       2.52186644       7.10440361       0.00098369      -0.00019644       0.00092844
Ti       4.40400241       4.67504400       8.28162448      -0.00001391      -0.00522545       0.00025311
Ti       1.46800774       4.68529274       8.26053557       0.00000576      -0.00474036      -0.00075337
Ti       4.40399783       0.73026440       8.85087354       0.00000446       0.00119376      -0.00442329
Ti       1.46800858       0.72607602       8.87311212      -0.00001982      -0.00071718      -0.00090537
Ti       0.01653136       2.86977935      10.07018252       0.00052186      -0.00419940      -0.00873872
Ti       2.91944159       2.86979157      10.07017108      -0.00048788      -0.00426352      -0.00871170
Ti       0.03243733       5.71122430      10.49502419       0.00327744      -0.00310211       0.00071238
Ti       2.90356533       5.71121032      10.49502737      -0.00327503      -0.00305142       0.00071226
Ti       1.46800451       0.94290075      11.71954530      -0.00002990      -0.00047409       0.00865075
Ti       4.40397761       0.88285165      11.68281469       0.00001730      -0.00289997       0.00073717
Ti       1.46799926       4.05803729      12.29719501      -0.00000412      -0.00552526       0.00333545
Ti       4.40398572       4.06174663      12.21096793      -0.00001046      -0.00762087      -0.00532906
Ti       2.96992691       2.13212007      13.70331268       0.00189219      -0.00558609       0.00508634
Ti       5.83805788       2.13210208      13.70329546      -0.00191652      -0.00556591       0.00516542
Ti       2.93701274       6.12814703      13.69605949      -0.00153692      -0.00638045       0.00005157
Ti       5.87094186       6.12811387      13.69605749       0.00151297      -0.00624524       0.00005239
Ti       4.40399414       4.05602178      15.06798240      -0.00003910      -0.01081613       0.00009705
Al       1.46797598       4.06658582      15.12053393       0.00009543      -0.00844801       0.00075375
Ti       4.40397643       0.86840895      15.72875449       0.00022617      -0.00282548      -0.00029238
Ti       1.46800947       0.95782915      15.73379731      -0.00004896       0.01086801      -0.00849347
Ti       2.90740147       5.68788304      16.90985028      -0.00639722      -0.00627830      -0.00002350
Ti       0.02860513       5.68790457      16.90984517       0.00637226      -0.00633522      -0.00000624
Ti       2.92706202       2.90319611      17.32348775       0.00050446       0.00642824      -0.00226845
Ti       0.00892056       2.90319481      17.32349652      -0.00047035       0.00640310      -0.00229060
Ti       4.40400716       0.74552860      18.52462218       0.00002370       0.00334592       0.00900882
Ti       1.46802709       0.74803794      18.52675659      -0.00003604       0.00500991       0.00153546
Ti       4.40401364       4.69512255      19.14143827      -0.00002963       0.00333099      -0.00169373
Ti       1.46799776       4.70914015      19.17915145       0.00002272       0.00656803       0.00122999
Ti       5.86733238       2.52094865      20.28921549      -0.00066137       0.00399136      -0.00108508
Ti       2.94070491       2.52094235      20.28922662       0.00076712       0.00397409      -0.00106759
Ti       0.00040418       6.61036375      20.80545221       0.00149207       0.00940683      -0.00011609
Ti       2.93564999       6.61035036      20.80545809      -0.00150152       0.00943678      -0.00010952
Ti       1.46804145       4.44227163      21.97401125      -0.00009702       0.00798644       0.00476313
Ti       4.40404833       4.44142436      21.95230336      -0.00001121       0.00569426      -0.00060280
Ti       1.46802744       1.49951317      22.56231505       0.00002414       0.00458845      -0.00378066
Ti       4.40404014       1.50280870      22.56568899      -0.00006520       0.00323096      -0.00356401
Ti       2.93754054       6.23316210      23.78728082       0.00017174       0.00189011      -0.00403652
Ti       5.87052955       6.23316469      23.78726746      -0.00014509       0.00191380      -0.00396340
Ti       2.93936661       3.41799481      24.19226703       0.00065854       0.00412114      -0.00835369
Ti       5.86870905       3.41800853      24.19227641      -0.00060420       0.00409644      -0.00839468
Ti       4.40405494       1.32161936      25.37674860       0.00000200       0.00730214      -0.00396966
Ti       1.46803325       1.32224230      25.37333564      -0.00001222       0.00752936      -0.00442890
Ti       4.40403297       5.03169598      25.99240358      -0.00002648      -0.00234120      -0.00597954
Ti       1.46803587       5.03046721      25.99017735      -0.00005350      -0.00313453      -0.00405786
