64
Lattice="5.871999 0.0 0.0 0.0 6.890708 0.0 0.0 0.0 27.401158" Properties=species:S:1:pos:R:3:forces:R:3 job_name=T1m-Zn-Zn-40-d-3.20 GB_type=T1m element=Zn system=Zn-40-d-3.20 distance=3.2 energy=-488.89700143 stress_kbar_3x3="_JSON [[-12.01633233, 0.00016536, 0.00048759], [0.00016533, -12.25381562, -1.15554561], [0.00048759, -1.15554559, -21.10979527]]" pbc="T T T"
Ti       2.93604345       0.10237764      27.39372915      -0.00003111       0.00424349       0.00117038
Ti       2.93606008       2.93759652      27.38154414      -0.00010036       0.00327758       0.00753179
Ti       0.00004191       0.09932477      27.39867630       0.00001698       0.00447671       0.00019016
Ti       0.00007117       2.93841898      27.37934526      -0.00000894       0.00310941       0.00869180
Ti       4.40026780       5.02061535       1.40053299       0.00137463       0.00662253       0.00821354
Ti       1.47180982       5.02062205       1.40052346      -0.00140730       0.00649465       0.00834357
Ti       4.40364410       1.32650853       2.02210014       0.00138763       0.00396007       0.00548970
Ti       1.46843897       1.32651122       2.02210840      -0.00137704       0.00395561       0.00541439
Ti       2.93602612       3.41385310       3.21316837      -0.00014673       0.00188274       0.00142044
Ti       0.00002515       3.41242435       3.21267656       0.00001747       0.00352205       0.00151142
Ti       2.93602389       6.22934239       3.61273805      -0.00005693       0.00840142       0.00606178
Ti       0.00000698       6.23014609       3.61109486       0.00007124       0.00728444       0.00451075
Ti       1.46765925       1.49280116       4.84250188      -0.00013316       0.00936644      -0.00256419
Ti       4.40432284       1.49280648       4.84251771       0.00025655       0.00932560      -0.00272059
Ti       1.46846844       4.44825934       5.45076574       0.00004107       0.00363866      -0.00614894
Ti       4.40355411       4.44825350       5.45075676      -0.00003200       0.00363015      -0.00618312
Ti       2.93600967       6.60387090       6.61064955      -0.00004848       0.01162004      -0.00748937
Ti       0.00001208       6.60299564       6.60959573       0.00001786       0.00768323      -0.00736704
Ti       2.93599663       2.53377151       7.11802300      -0.00009103       0.00564211      -0.00721399
Ti       5.87198615       2.53299511       7.11876692       0.00010335       0.00506085      -0.00719462
Ti       4.40585665       4.69502400       8.28491309      -0.00217763       0.00602226      -0.00725326
Ti       1.46611869       4.69503746       8.28493629       0.00226841       0.00595043      -0.00736405
Ti       4.40277256       0.74856938       8.88808037       0.00075775       0.00258149      -0.00288292
Ti       1.46924517       0.74857351       8.88810122      -0.00074981       0.00258917      -0.00295727
Ti       0.00001340       2.90304706      10.09324519      -0.00002414      -0.00147591       0.00133523
Ti       2.93601022       2.90935532      10.09448376      -0.00001677      -0.00230747       0.00191265
Ti       5.87199784       5.73670914      10.53558575       0.00000888      -0.00149545       0.00794087
Ti       2.93601142       5.72855605      10.54179123      -0.00004430       0.01010725       0.00830327
Ti       1.48372670       0.95177300      11.70072671      -0.01001595       0.00949285       0.00050903
Ti       4.38827981       0.95177381      11.70071829       0.01001397       0.00947790       0.00049522
Ti       1.46291977       4.08858431      12.31998104       0.00527481      -0.00808950       0.00329838
Ti       4.40908374       4.08857394      12.31998494      -0.00526486      -0.00802038       0.00327413
Ti       2.93600173       2.15040869      13.80548137      -0.00001494       0.00552017      -0.00018713
Ti       0.00000061       2.13637823      13.77733581       0.00001756       0.00349488       0.00920805
Ti       2.93599133       6.20012015      13.68685020       0.00001498       0.00754256      -0.01265272
Ti       5.87199006       6.19099052      13.67717966       0.00002749       0.00511213      -0.01094486
Ti       4.44490687       4.09854917      15.15348546      -0.00469689      -0.00464953      -0.00111253
Ti       1.42710072       4.09854684      15.15348426       0.00469635      -0.00464756      -0.00110874
Ti       4.37850446       0.82763242      15.73860428       0.00349936       0.00421677      -0.01314310
Ti       1.49349188       0.82764246      15.73859880      -0.00347110       0.00418830      -0.01307306
Zn       2.93601027       5.68390655      16.89490268      -0.00004296      -0.00032738      -0.00044592
Ti       0.00001007       5.61898926      16.91371243       0.00004511       0.00087090      -0.00207750
Ti       2.93599864       2.88273871      17.31810467       0.00001840      -0.00698895      -0.01247726
Ti       0.00001327       2.79210809      17.30065950      -0.00009258      -0.00829636      -0.00552305
Ti       4.36220629       0.68526890      18.51665842       0.00108823       0.00079383       0.00536340
Ti       1.50983106       0.68526687      18.51666771      -0.00115029       0.00067088       0.00529109
Ti       4.38145347       4.66805694      19.09706218      -0.00105512      -0.00814445      -0.00228708
Ti       1.49057069       4.66806487      19.09706971       0.00101952      -0.00807475      -0.00226472
Ti       0.00001559       2.51604568      20.27248418       0.00003005      -0.00291940       0.00932427
Ti       2.93600805       2.53288010      20.23093830       0.00005458      -0.00065077      -0.00670197
Ti       0.00001764       6.58160500      20.76077343       0.00000260      -0.00698645       0.00473003
Ti       2.93599600       6.60365441      20.82051283       0.00008206      -0.00487760       0.00553685
Ti       1.46680868       4.43399446      21.92963429       0.00236628      -0.01526054      -0.00297075
Ti       4.40526725       4.43399755      21.92962657      -0.00245331      -0.01529734      -0.00295379
Ti       1.47109263       1.50724118      22.53301405       0.00412646      -0.01238058       0.00500168
Ti       4.40091133       1.50724593      22.53303183      -0.00412476      -0.01239611       0.00485923
Ti       2.93603346       6.23989734      23.76309407      -0.00000522      -0.00981727      -0.00504516
Ti       0.00001350       6.23679929      23.74178346       0.00010955      -0.01471430       0.00658053
Ti       2.93601586       3.41421351      24.17725833       0.00010054      -0.00750718      -0.00210893
Ti       0.00002136       3.41235640      24.17398222       0.00000061      -0.00934330       0.00683960
Ti       4.40826042       1.31665346      25.35543541      -0.00344770      -0.00236283      -0.00005292
Ti       1.46382573       1.31665456      25.35542439       0.00343747      -0.00239988      -0.00000732
Ti       4.40386247       5.03930930      25.96608496       0.00207133      -0.00618578       0.00804720
Ti       1.46822350       5.03930415      25.96607370      -0.00213774      -0.00621252       0.00807744
