64
Lattice="5.871999 0.0 0.0 0.0 6.890708 0.0 0.0 0.0 27.401158" Properties=species:S:1:pos:R:3:forces:R:3 job_name=T1m-Zr-Zr-37-d-1.42 GB_type=T1m element=Zr system=Zr-37-d-1.42 distance=1.42 energy=-495.66447153 stress_kbar_3x3="_JSON [[-2.72802561, -0.00037889, 0.00024393], [-0.00037891, -4.57524775, -1.41169315], [0.00024395, -1.41169312, -9.18696861]]" pbc="T T T"
Ti       2.93872597       0.09752536       0.00585251       0.00304854      -0.01058031      -0.00130542
Ti       2.93690069       2.93710124       0.00654251      -0.00061561       0.00188252      -0.00431729
Ti       5.86931227       0.09751520       0.00590704      -0.00313666      -0.01065715      -0.00133339
Ti       5.87114696       2.93708914       0.00654653       0.00063227       0.00193525      -0.00418790
Ti       4.40403699       5.02311549       1.41027267       0.00000507       0.00617922      -0.01140898
Ti       1.46800422       5.02293606       1.41477557       0.00001047       0.00436435      -0.01074197
Ti       4.40401077       1.31955449       2.02462106       0.00004000      -0.00605535      -0.00881579
Ti       1.46801488       1.32202846       2.02396654      -0.00005262      -0.00331191      -0.01019344
Ti       2.93790549       3.40833572       3.19485465      -0.00217833      -0.00143883       0.00063664
Ti       5.87012874       3.40833780       3.19492311       0.00216580      -0.00141774       0.00043976
Ti       2.93750840       6.23084547       3.60682979      -0.00260126       0.00066168      -0.00751985
Ti      -0.00146855       6.23082573       3.60677277       0.00262002       0.00080728      -0.00740117
Ti       1.46806267       1.48971481       4.82047132      -0.00006223       0.00598914      -0.00560959
Ti       4.40400179       1.48946719       4.82236324       0.00005223       0.00142643      -0.00382123
Ti       1.46803374       4.44276799       5.41831206      -0.00005610      -0.00137920       0.00432526
Ti       4.40393388       4.44320751       5.41459319       0.00017255      -0.00412118       0.00155749
Ti       2.93219166       6.59433060       6.57504141      -0.00000212       0.00016781       0.00294455
Ti       0.00379262       6.59431232       6.57506754       0.00004691       0.00015909       0.00279636
Ti       2.93221646       2.52353791       7.07342132      -0.00082823       0.00376395      -0.00151680
Ti       0.00386761       2.52357443       7.07341200       0.00076480       0.00373362      -0.00167444
Ti       4.40403350       4.67551639       8.22235195      -0.00005762       0.00948177      -0.00005394
Ti       1.46798792       4.68020895       8.23319040       0.00007669       0.01164075      -0.00281221
Ti       4.40401605       0.74170148       8.81116235       0.00001130      -0.00247295       0.00762823
Ti       1.46802921       0.73745032       8.84176785      -0.00005656      -0.00085351       0.00343646
Ti       5.86972342       2.89964074      10.04616335      -0.00163151      -0.00245728       0.00376615
Ti       2.93831590       2.89964829      10.04621692       0.00147093      -0.00258664       0.00365297
Ti       0.00373443       5.71023814      10.45317654      -0.00055069       0.00973754      -0.00026404
Ti       2.93226666       5.71024294      10.45312072       0.00060563       0.00973625      -0.00014491
Ti       1.46798675       0.92313533      11.63994611      -0.00001027       0.01528044       0.00753602
Ti       4.40401221       0.92543027      11.58293097       0.00002557       0.00829683       0.01531370
Ti       1.46799776       4.08735763      12.21584128       0.00001850       0.00618608       0.00997199
Ti       4.40401376       4.10309948      12.26973566       0.00003342      -0.01175469       0.00984691
Ti       3.00532786       2.11158720      13.65816662       0.01009770       0.00565811      -0.00060530
Ti       5.80270656       2.11158935      13.65819149      -0.01018606       0.00564506      -0.00068838
Ti       2.97189579       6.22515486      13.62406978      -0.00155688      -0.00005679       0.00258268
Ti       5.83608784       6.22514323      13.62406677       0.00153175       0.00003707       0.00261136
Ti       4.40401023       4.10880811      15.13609784      -0.00009569      -0.00124282      -0.00403332
Zr       1.46792817       4.11427665      15.15119613       0.00064685      -0.00081884       0.01280717
Ti       4.40402997       0.91178127      15.75775569      -0.00000061      -0.00985171       0.00177316
Ti       1.46800377       0.84249714      15.68636411      -0.00000064       0.00176189       0.00291469
Ti       2.99529461       5.72847572      17.01352030       0.00563207       0.00300566      -0.00093441
Ti       5.81273697       5.72850133      17.01347937      -0.00564891       0.00289524      -0.00086114
Ti       2.97754409       2.85771271      17.37776826       0.00735539      -0.00197457      -0.01365834
Ti       5.83045637       2.85773723      17.37773736      -0.00730264      -0.00200441      -0.01352157
Ti       4.40403024       0.72368863      18.60403931      -0.00014335      -0.00376376      -0.01071829
Ti       1.46803667       0.74363247      18.55977673      -0.00007785      -0.00300573      -0.01557272
Ti       4.40403407       4.65254635      19.21297188      -0.00028570      -0.00264838      -0.00650113
Ti       1.46800610       4.65471808      19.15783929      -0.00005350       0.00680417      -0.00961019
Ti       0.00695720       2.51365495      20.34407094       0.00251210      -0.00218506      -0.00309381
Ti       2.92903798       2.51355470      20.34410168      -0.00230418      -0.00169955      -0.00339597
Ti       0.00529848       6.58103587      20.83191480       0.00034521      -0.00416870      -0.00209895
Ti       2.93078275       6.58104388      20.83191295      -0.00043574      -0.00415514      -0.00200136
Ti       1.46804602       4.43619785      21.97755478      -0.00008143      -0.00402492       0.00706322
Ti       4.40401293       4.43986358      22.01461458       0.00006658      -0.00895081      -0.00065116
Ti       1.46802840       1.48507994      22.59071415      -0.00004030       0.00624797       0.01168653
Ti       4.40402202       1.47922090      22.58419573       0.00001823      -0.00318405       0.00620227
Ti       2.93327045       6.22626094      23.80504968      -0.00193809       0.00018239       0.00817539
Ti       0.00275748       6.22627172      23.80501482       0.00198087       0.00005898       0.00821623
Ti       2.92971670       3.40557340      24.21409447      -0.00283077      -0.00613933       0.00281628
Ti       0.00634940       3.40556872      24.21410666       0.00284274      -0.00596767       0.00272937
Ti       4.40407847       1.31899562      25.38506610      -0.00012387      -0.00689823       0.00952457
Ti       1.46796323       1.31916747      25.38820280       0.00013224      -0.00684578       0.00429056
Ti       4.40398941       5.02288473      25.99696138       0.00010979       0.00213727       0.00881202
Ti       1.46806946       5.02357520      26.00397267      -0.00012619       0.00280919       0.00501041
