64
Lattice="5.871999 0.0 0.0 0.0 6.890708 0.0 0.0 0.0 27.401158" Properties=species:S:1:pos:R:3:forces:R:3 job_name=T1m-Zr-Zr-32-d-0.00 GB_type=T1m element=Zr system=Zr-32-d-0.00 distance=0.0 energy=-495.53829727 stress_kbar_3x3="_JSON [[-2.45328452, -0.00035665, 0.0008483], [-0.00035665, -2.88022064, -0.00184753], [0.0008483, -0.00184753, -10.73533402]]" pbc="T T T"
Ti       2.93606570       0.09667619      27.40099394      -0.00000048       0.00503728       0.00054944
Ti       2.93606669       2.93740537      -0.00002718      -0.00004648      -0.00195554       0.00024130
Ti      -0.00000925       0.09698622      27.40102806       0.00003880       0.00478217       0.00004227
Ti       0.00005554       2.93621174      -0.00004577       0.00001607      -0.00060710       0.00019705
Ti       4.40509866       5.02417073       1.40738452       0.00023961      -0.00262564      -0.00333066
Ti       1.46694762       5.02416455       1.40741972      -0.00005703      -0.00262203      -0.00373178
Ti       4.40429408       1.32015808       2.01886673       0.00040800      -0.00436168      -0.00600262
Ti       1.46775433       1.32015166       2.01883367      -0.00040846      -0.00444772      -0.00626492
Ti       2.93600815       3.40686817       3.19585019       0.00003185       0.00009214      -0.00421052
Ti       0.00002259       3.40677076       3.19615841      -0.00021846       0.00027012      -0.00106851
Ti       2.93602390       6.22662371       3.60082888       0.00015762       0.00133994       0.00082456
Ti       0.00003700       6.22566630       3.60311320      -0.00015521       0.00162128       0.00219221
Ti       1.46838013       1.48312210       4.81982620       0.00132054      -0.00576143       0.00524834
Ti       4.40365018       1.48311563       4.81989021      -0.00139219      -0.00567807       0.00496224
Ti       1.46767733       4.43538204       5.41665324      -0.00127073       0.00490158       0.00451372
Ti       4.40432885       4.43543043       5.41672204       0.00139739       0.00451254       0.00374751
Ti       2.93602468       6.58481884       6.57854271      -0.00030694      -0.00200989      -0.00158096
Ti       0.00001364       6.58217249       6.58271388       0.00029074       0.00053407      -0.00423949
Ti       2.93597791       2.50812887       7.07375641      -0.00000421      -0.00152076      -0.00078599
Ti       0.00000720       2.51317134       7.07208393       0.00005640      -0.00348378      -0.00131750
Ti       4.39896479       4.65036068       8.22791798      -0.00182194       0.00280922       0.00002901
Ti       1.47305699       4.65037072       8.22793403       0.00178461       0.00274410      -0.00054282
Ti       4.40207593       0.74156829       8.82763767       0.00070251       0.00183207       0.00234293
Ti       1.46993401       0.74156821       8.82768207      -0.00077133       0.00162581       0.00182608
Ti       0.00001322       2.88756916      10.06721326      -0.00006639      -0.00145428      -0.00385512
Ti       2.93598920       2.87138818      10.08124378       0.00014044      -0.00273081      -0.00101171
Ti       0.00000121       5.70154369      10.42185792      -0.00005465      -0.00061535      -0.00139719
Ti       2.93598881       5.70290512      10.43270189       0.00014062       0.00461768       0.00002893
Ti       1.41141737       0.86473021      11.61861828       0.00347661      -0.00085737      -0.00073559
Ti       4.46058786       0.86473737      11.61862939      -0.00364509      -0.00093581      -0.00096335
Ti       1.41467410       4.17148819      12.26343024       0.00120944       0.00965764      -0.00225114
Ti       4.45732966       4.17149257      12.26341524      -0.00131675       0.00958706      -0.00210487
Zr       2.93597138       2.17057603      13.70048191       0.00039408      -0.00668541       0.00139948
Ti      -0.00000466       2.18172923      13.70070402      -0.00003649      -0.00875086      -0.00044401
Ti       2.93599949       6.13696124      13.70067841       0.00007753      -0.00271879      -0.00028372
Ti       0.00000704       6.24923879      13.70066081      -0.00003303      -0.00269326      -0.00018401
Ti       4.45732815       4.17150058      15.13789739      -0.00139137       0.00951353       0.00124376
Ti       1.41467632       4.17151177      15.13787655       0.00141978       0.00927660       0.00149867
Ti       4.46060760       0.86470780      15.78262057      -0.00382095      -0.00069956       0.00039206
Ti       1.41143809       0.86470607      15.78263087       0.00374981      -0.00076061       0.00035299
Ti       2.93600239       5.70294193      16.96843122       0.00015350       0.00420039       0.00037614
Ti       0.00003555       5.70154055      16.97934927      -0.00028068      -0.00052473       0.00149754
Ti       2.93603102       2.87136215      17.31987073      -0.00032926      -0.00256695       0.00167572
Ti       0.00000662       2.88755440      17.33390103       0.00015230      -0.00150709       0.00439734
Ti       4.40206058       0.74157329      18.57345706       0.00095257       0.00185688      -0.00120934
Ti       1.46995255       0.74156932      18.57346433      -0.00088819       0.00187747      -0.00117780
Ti       4.39897159       4.65036102      19.17321989      -0.00198102       0.00292823       0.00050577
Ti       1.47304522       4.65034973      19.17321270       0.00215124       0.00296914       0.00057056
Ti       0.00003473       2.51320985      20.32907867      -0.00026399      -0.00352170       0.00127147
Ti       2.93601069       2.50815096      20.32742107       0.00011077      -0.00142315       0.00035824
Ti      -0.00000420       6.58222287      20.81850208       0.00019622      -0.00001897       0.00339027
Ti       2.93602637       6.58485526      20.82264029      -0.00012928      -0.00251764       0.00122975
Ti       1.46769360       4.43544780      21.98453985      -0.00139890       0.00494899      -0.00507931
Ti       4.40434191       4.43546183      21.98454821       0.00131396       0.00481450      -0.00503824
Ti       1.46839011       1.48311111      22.58131426       0.00139473      -0.00550322      -0.00556243
Ti       4.40365083       1.48308932      22.58130089      -0.00129790      -0.00532742      -0.00547880
Ti       2.93602629       6.22667144      23.80036806      -0.00004463       0.00130430      -0.00099946
Ti       0.00003638       6.22571941      23.79807265      -0.00001045       0.00130148      -0.00198779
Ti       2.93600503       3.40692401      24.20527905      -0.00004498       0.00016986       0.00413401
Ti       0.00002539       3.40682752      24.20493921       0.00009288       0.00024569       0.00133136
Ti       4.40429108       1.32028449      25.38217436       0.00049488      -0.00456178       0.00637473
Ti       1.46778586       1.32026258      25.38219920      -0.00055325      -0.00451377       0.00638825
Ti       4.40509877       5.02411653      25.99367218       0.00017745      -0.00263765       0.00373497
Ti       1.46696263       5.02413610      25.99367442      -0.00020220      -0.00277192       0.00397099
