64
Lattice="5.871999 0.0 0.0 0.0 6.890708 0.0 0.0 0.0 27.401158" Properties=species:S:1:pos:R:3:forces:R:3 job_name=T1m-Cu-Cu-48-d-6.60 GB_type=T1m element=Cu system=Cu-48-d-6.60 distance=6.6 energy=-491.34185346 stress_kbar_3x3="_JSON [[-12.02957898, -0.00055693, 0.00024768], [-0.00055693, -16.06237271, -0.70608923], [0.00024769, -0.70608925, -25.35631357]]" pbc="T T T"
Ti       2.93598287       6.63249504       0.22133193       0.00007449      -0.00247141       0.00127058
Ti       2.93604095       2.55483363      27.09789852      -0.00012433      -0.00341765       0.00277105
Ti      -0.00000188       6.63472970       0.22944895      -0.00015989      -0.00145487       0.00256981
Ti       5.87199213       2.56007095      27.11277367       0.00001136      -0.00441932       0.00298525
Ti       4.40175213       4.47915078       1.38010197       0.00018221      -0.00572351      -0.00119297
Ti       1.47017802       4.47915778       1.38012567       0.00000084      -0.00571972      -0.00111830
Ti       4.40166957       1.53473389       1.98440832       0.00122765      -0.00246483      -0.00217681
Ti       1.47027869       1.53473232       1.98433783      -0.00106907      -0.00253347      -0.00213973
Ti       2.93600569       3.44959978       3.61903834       0.00003130      -0.00199174      -0.00099354
Ti      -0.00001114       3.45200411       3.61431267      -0.00008002      -0.00093761      -0.00066311
Ti       2.93596271       6.27045041       3.21862900       0.00000306      -0.00301453      -0.00736369
Ti       5.87194208       6.26843497       3.22505564       0.00007006      -0.00260971      -0.00788156
Ti       1.46423725       1.36556887       4.80903544      -0.00070909      -0.00339928      -0.00426653
Ti       4.40773147       1.36555330       4.80912709       0.00065598      -0.00336789      -0.00434427
Ti       1.46867739       5.04517904       5.42948930       0.00113009      -0.00415655       0.00149044
Ti       4.40333039       5.04517163       5.42946735      -0.00121900      -0.00407254       0.00164078
Ti       2.93590697       0.12364922       6.82899600       0.00005383       0.00057585       0.00286136
Ti       0.00009689       0.12243150       6.82890070       0.00001693       0.00251185       0.00291494
Ti       2.93594539       2.96121978       6.86339318       0.00009267      -0.00384143       0.00212001
Ti       0.00003762       2.95723752       6.86460476      -0.00007430      -0.00089967      -0.00093196
Ti       4.40337095       5.05667855       8.26831815       0.00096238      -0.00269945       0.00253472
Ti       1.46862587       5.05672416       8.26834918      -0.00091653      -0.00278405       0.00239717
Ti       4.40761662       1.30607825       8.88914994      -0.00076951       0.00752296       0.00284997
Ti       1.46441365       1.30608130       8.88928356       0.00067030       0.00736089       0.00249794
Ti       0.00001313       3.41044648      10.05859977      -0.00005440       0.00117067       0.00790415
Ti       2.93595846       3.40702459      10.05438510       0.00019028       0.00449900       0.00432381
Ti       0.00008376       6.22360382      10.49631969      -0.00016315       0.00292904       0.00408989
Ti       2.93605383       6.22573919      10.50110801      -0.00016602       0.00239828       0.00852531
Ti       1.46987630       1.49819242      11.71668516       0.00179789       0.00221970      -0.00023996
Ti       4.40220161       1.49811171      11.71654679      -0.00192236       0.00254884      -0.00021791
Ti       1.47050591       4.42147969      12.31728490      -0.00133689       0.00318779       0.00145076
Ti       4.40153002       4.42147059      12.31718632       0.00131758       0.00323245       0.00161390
Ti       2.93603796       2.51150732      14.00864771      -0.00007748       0.00167766      -0.00486052
Ti       5.87196309       2.51777414      13.99359055       0.00029583      -0.00161986      -0.00566539
Ti       2.93605638       6.58451995      13.47570210      -0.00019812       0.00524325       0.00605779
Ti      -0.00000282       6.58662599      13.46864150       0.00003675       0.00367368       0.00052007
Ti       4.41025123       4.69104963      15.16322613       0.00047596      -0.00102680      -0.00161192
Ti       1.46182363       4.69107004      15.16333852      -0.00054712      -0.00107994      -0.00170918
Ti       4.40489261       0.69571526      15.76460053       0.00135084       0.00117374       0.00083453
Ti       1.46711001       0.69575480      15.76457462      -0.00124438       0.00107134       0.00114953
Ti       2.93604159       5.66844369      17.41481596      -0.00029321       0.00340986       0.00501496
Ti      -0.00001448       5.71702558      17.48157737       0.00031389       0.00048733       0.00115574
Ti       2.93611218       2.84779852      16.98666663      -0.00027960       0.00486353       0.00582468
Ti       0.00006360       2.88681505      16.91018698       0.00008681       0.00168060       0.00380349
Ti       4.44370826       0.92421100      18.60203273      -0.00020362      -0.00720872       0.00149627
Ti       1.42846500       0.92416649      18.60204164      -0.00005350      -0.00724686       0.00109848
Ti       4.45039743       3.97782337      19.16851205       0.00024598       0.00572911      -0.00085893
Ti       1.42159010       3.97782594      19.16844687      -0.00008360       0.00587225      -0.00108692
Cu       0.00004244       2.09692015      20.54977828       0.00031085      -0.00072293      -0.00988623
Ti       2.93605589       1.96795212      20.54877193      -0.00003571      -0.00276079      -0.00606503
Ti       0.00005430       6.15743236      20.55810183       0.00005561      -0.00401480      -0.00349429
Ti       2.93607285       6.03315459      20.55654322      -0.00008947      -0.00657571      -0.00317923
Ti       1.42183892       3.98462272      21.93888020      -0.00122809       0.00721283      -0.00248424
Ti       4.45023081       3.98464741      21.93887289       0.00122858       0.00714257      -0.00258959
Ti       1.42871842       0.94211576      22.50298986      -0.00767417      -0.00537465       0.00061791
Ti       4.44330947       0.94205862      22.50287946       0.00779052      -0.00509028       0.00078310
Ti       2.93600263       5.69220878      23.68746412      -0.00014429       0.00317041      -0.00777028
Ti       0.00006001       5.73846759      23.62144402      -0.00000518       0.00504996      -0.00325684
Ti       2.93598273       2.87501716      24.12286341       0.00011485       0.00347766      -0.00376834
Ti       0.00004858       2.91314202      24.19762400       0.00000309       0.00320978      -0.00006847
Ti       4.40542460       0.72824439      25.33622359       0.00100004      -0.00370482      -0.00001862
Ti       1.46656262       0.72822458      25.33628270      -0.00087392      -0.00377717      -0.00022022
Ti       4.41028469       4.72761068      25.93898117      -0.00080985       0.00392008       0.00256336
Ti       1.46176945       4.72761195      25.93906050       0.00080736       0.00395959       0.00239286
