64
Lattice="5.871999 0.0 0.0 0.0 6.890708 0.0 0.0 0.0 27.401158" Properties=species:S:1:pos:R:3:forces:R:3 job_name=T1m-Zr-Zr-42-d-3.62 GB_type=T1m element=Zr system=Zr-42-d-3.62 distance=3.62 energy=-495.7680784 stress_kbar_3x3="_JSON [[-3.26945588, 0.00174497, -0.00034065], [0.00174495, -2.18539119, -1.61864507], [-0.00034065, -1.61864507, -10.83740212]]" pbc="T T T"
Ti       2.93606840       0.10310456       0.01185735       0.00000325       0.00238826       0.01078134
Ti       2.93604950       2.94076018       0.00782496       0.00003787      -0.00179207       0.00794827
Ti       0.00001495       0.10188122       0.01116055      -0.00001299       0.00191227       0.01236853
Ti       0.00006219       2.94004719       0.01286474      -0.00009175      -0.00145820       0.00406353
Ti       4.40421562       5.02765670       1.42229745       0.00038916      -0.00309009       0.00339363
Ti       1.46780489       5.02763219       1.42225726      -0.00034082      -0.00304658       0.00344407
Ti       4.40371522       1.32215034       2.03534711       0.00010238       0.00306045      -0.00277651
Ti       1.46835695       1.32217041       2.03534373      -0.00007634       0.00304485      -0.00276942
Ti       2.93604242       3.40978060       3.21033357      -0.00006017      -0.00010959      -0.00690086
Ti      -0.00002084       3.41055997       3.21141885       0.00004926      -0.00090121      -0.00736061
Ti       2.93603146       6.23135649       3.62044933       0.00004177       0.00014737      -0.00812400
Ti       0.00006590       6.23185083       3.62114146      -0.00005153       0.00044335      -0.00727243
Ti       1.46791219       1.49251859       4.83889960      -0.00049309       0.00058444      -0.00454782
Ti       4.40410838       1.49254320       4.83893291       0.00049933       0.00055854      -0.00456293
Ti       1.46718131       4.44036027       5.43423600       0.00003187      -0.00030994      -0.00322505
Ti       4.40486899       4.44036850       5.43423955      -0.00004489      -0.00029075      -0.00322604
Ti       2.93599907       6.59357367       6.59059646      -0.00000102       0.00111377       0.00048770
Ti       0.00000591       6.59445359       6.59252570       0.00001589       0.00049232      -0.00094188
Ti       2.93603432       2.52233624       7.09116701      -0.00005975       0.00219064       0.00194436
Ti       0.00001740       2.52240901       7.09601464       0.00003221       0.00214331       0.00109731
Ti       4.40224791       4.68067426       8.24754959       0.00034904       0.00257325       0.00336836
Ti       1.46977437       4.68063320       8.24755825      -0.00032286       0.00267199       0.00336102
Ti       4.40475375       0.73604582       8.84500505      -0.00020643       0.00266607       0.00267383
Ti       1.46728431       0.73606518       8.84501002       0.00020401       0.00260300       0.00266909
Ti       0.00000421       2.89574421      10.06002688      -0.00001367      -0.00117881      -0.00397559
Ti       2.93602633       2.89651750      10.05024785      -0.00004126      -0.00042421      -0.00017469
Ti       0.00005172       5.72011301      10.47472819      -0.00006072       0.00295787      -0.00234813
Ti       2.93600511       5.71783218      10.47585130       0.00003762       0.00235348      -0.00034380
Ti       1.46494603       0.93295032      11.65365364       0.00447675       0.00590323      -0.00260399
Ti       4.40700641       0.93300973      11.65366526      -0.00443036       0.00580344      -0.00261763
Ti       1.47957690       4.08269954      12.25610940       0.00011164      -0.00168463      -0.00658780
Ti       4.39243823       4.08269869      12.25614725      -0.00010468      -0.00165033      -0.00668926
Ti       2.93600354       2.13819992      13.72123733      -0.00001154      -0.00186218      -0.00123854
Ti       0.00000233       2.13802084      13.70347638      -0.00002257       0.00258375      -0.01247315
Ti       2.93592829       6.19049960      13.64078744       0.00003560       0.00750968      -0.01244936
Ti       5.87195698       6.19435164      13.64051717      -0.00001895       0.00295666      -0.01037741
Ti       4.42541816       4.14914885      15.04931292      -0.01204624      -0.00179276       0.00396799
Ti       1.44654803       4.14912486      15.04931723       0.01205342      -0.00173233       0.00396352
Ti       4.48011639       0.81970299      15.69218201      -0.01365336      -0.00498084       0.00156881
Ti       1.39187489       0.81970897      15.69219242       0.01368057      -0.00495431       0.00157557
Ti       2.93599551       5.75201023      16.93059801       0.00006388      -0.01440599       0.00671367
Ti       5.87198440       5.64280159      16.92813732      -0.00007690       0.00038756       0.01274008
Zr       2.93614207       2.85398614      17.28095528       0.00006433      -0.01258371       0.00037523
Ti       0.00005523       2.84429453      17.26962931      -0.00003322       0.00434702       0.00653258
Ti       4.44323701       0.67936336      18.56780548      -0.00912911       0.00748591       0.00177842
Ti       1.42873892       0.67946218      18.56782039       0.00916376       0.00737855       0.00175291
Ti       4.40597604       4.69055368      19.18906851      -0.00475028      -0.00562766      -0.00236494
Ti       1.46604419       4.69048203      19.18904934       0.00478681      -0.00553552      -0.00237069
Ti       5.87198989       2.51192115      20.30567508      -0.00006229       0.00053400       0.00796233
Ti       2.93602971       2.51900463      20.36385344       0.00003665      -0.00245731      -0.00482486
Ti      -0.00001584       6.60324194      20.84477568      -0.00003661       0.00041310       0.00290766
Ti       2.93598683       6.60345719      20.82805513       0.00000838       0.00024363       0.00695678
Ti       1.46362251       4.43850346      21.99369008       0.00017815      -0.00088453       0.00132571
Ti       4.40837376       4.43852422      21.99367327      -0.00015151      -0.00098661       0.00134423
Ti       1.46236632       1.49802230      22.58877435      -0.00154867       0.00080865      -0.00118441
Ti       4.40967510       1.49809085      22.58876162       0.00152841       0.00077841      -0.00114675
Ti       2.93605102       6.23140656      23.80046374       0.00002222      -0.00118882      -0.00279515
Ti       0.00002622       6.23335359      23.80030319      -0.00002127      -0.00121967       0.00167652
Ti       2.93604406       3.41545689      24.21069541      -0.00002734      -0.00129440      -0.00885609
Ti      -0.00000734       3.41402415      24.21651313       0.00000043      -0.00280913       0.00045095
Ti       4.40254443       1.32465434      25.38772067      -0.00000635       0.00072664       0.00459808
Ti       1.46954897       1.32462435      25.38774973      -0.00001998       0.00079395       0.00459256
Ti       4.40356955       5.02856984      26.00375173       0.00012639      -0.00116109       0.00339912
Ti       1.46848282       5.02852836      26.00373628      -0.00010250      -0.00114613       0.00334603
