64
Lattice="5.871999 0.0 0.0 0.0 6.890708 0.0 0.0 0.0 27.401158" Properties=species:S:1:pos:R:3:forces:R:3 job_name=T1m-Zr-Zr-48-d-6.60 GB_type=T1m element=Zr system=Zr-48-d-6.60 distance=6.6 energy=-495.67889442 stress_kbar_3x3="_JSON [[-3.08762229, 0.00045303, -0.00051185], [0.00045303, -2.41177646, -0.45229047], [-0.00051183, -0.45229046, -10.43646053]]" pbc="T T T"
Ti       2.93598809       0.08877842       0.01327007       0.00005234      -0.00001335      -0.00320801
Ti       2.93605601       2.92886912       0.03937359      -0.00001801      -0.00456105       0.00155821
Ti       0.00003873       0.08533094       0.01673833      -0.00010799      -0.00008958       0.00119235
Ti       0.00004069       2.92603564       0.03164939       0.00013599      -0.00566435       0.00034582
Ti       4.40026025       5.02333769       1.43187579       0.00022073      -0.00110067       0.00155792
Ti       1.47181293       5.02339976       1.43185360      -0.00025063      -0.00186478       0.00208046
Ti       4.40602604       1.30880997       2.04197179       0.00034962      -0.00091316       0.00293002
Ti       1.46598535       1.30878819       2.04197939      -0.00023153      -0.00058228       0.00328586
Ti       2.93607326       3.40426873       3.21830578      -0.00054779      -0.00170167       0.00311834
Ti      -0.00003178       3.40396750       3.21684898       0.00060593      -0.00005439      -0.00031378
Ti       2.93600540       6.22734642       3.63101382       0.00014180       0.00040322       0.00118934
Ti       0.00002545       6.22638762       3.62856616       0.00005681      -0.00002142       0.00344878
Ti       1.46762927       1.48961051       4.84474390       0.00068690       0.00128899       0.00161388
Ti       4.40439871       1.48965302       4.84470673      -0.00056814       0.00093371       0.00204740
Ti       1.46843516       4.43830673       5.44103774      -0.00081608      -0.00356967      -0.00006391
Ti       4.40364102       4.43829252       5.44104615       0.00048420      -0.00325059       0.00003663
Ti       2.93600375       6.59290274       6.59922790       0.00013339      -0.00222386      -0.00139956
Ti       0.00000337       6.59230175       6.59785012      -0.00000554      -0.00206442      -0.00120376
Ti       2.93603303       2.52175379       7.10078614      -0.00000812      -0.00239535      -0.00234943
Ti       0.00002190       2.52155137       7.09980301      -0.00005500      -0.00002833      -0.00325805
Ti       4.40348852       4.67318417       8.25679608       0.00012783      -0.00286801      -0.00280892
Ti       1.46849430       4.67313256       8.25676747       0.00005092      -0.00244188      -0.00252306
Ti       4.40453750       0.73332643       8.85289017       0.00060820      -0.00115309      -0.00178310
Ti       1.46750280       0.73327048       8.85280708      -0.00073506      -0.00074716      -0.00099425
Ti      -0.00001535       2.88354042      10.07225191       0.00019506       0.00108070       0.00000396
Ti       2.93599326       2.88250016      10.07474802      -0.00009547       0.00105352       0.00461755
Ti      -0.00001202       5.70050206      10.47811686       0.00025568      -0.00142754       0.00167647
Ti       2.93604479       5.70374868      10.47784588      -0.00040845       0.00148849      -0.00105175
Ti       1.46106682       0.89668196      11.65126503      -0.00201858      -0.00064727      -0.00076813
Ti       4.41093379       0.89672091      11.65126730       0.00198681      -0.00081127      -0.00008682
Ti       1.46957777       4.08994149      12.26545504      -0.00063701       0.00367627      -0.00420679
Ti       4.40240563       4.08996370      12.26549562       0.00073107       0.00350143      -0.00439487
Ti       2.93597207       2.11930051      13.65620725       0.00011733      -0.00684726       0.00112674
Ti       0.00003796       2.12162098      13.67131994      -0.00009911      -0.00647869      -0.00229657
Ti       2.93596193       6.17460359      13.68071402       0.00008278       0.00254464       0.00052648
Ti      -0.00000096       6.17656800      13.68174853      -0.00009156       0.00243104       0.00429010
Ti       4.39322966       4.07417670      15.07613215       0.00283759       0.00230622       0.00884039
Ti       1.47878330       4.07411899      15.07616309      -0.00278325       0.00274227       0.00846344
Ti       4.40379927       0.91532067      15.69051590       0.00108793      -0.00064679       0.00110073
Ti       1.46820958       0.91531090      15.69055281      -0.00119704      -0.00063960       0.00100884
Ti       2.93603264       5.69855642      16.84696102      -0.00013198       0.00383253      -0.00144749
Ti       0.00001801       5.69548371      16.87113310       0.00009468       0.00329718      -0.00331841
Ti       2.93596114       2.89821789      17.31237504       0.00036099      -0.00270861      -0.00481588
Ti       0.00001235       2.88849951      17.24891140      -0.00010562       0.00243098      -0.00350246
Ti       4.39256758       0.70633471      18.48639032      -0.00241900       0.00153267      -0.00101113
Ti       1.47948153       0.70626650      18.48641015       0.00230983       0.00220319      -0.00093460
Ti       4.36491572       4.73969285      19.10772785      -0.00105673       0.00486255       0.00015592
Ti       1.50712499       4.73967112      19.10776799       0.00099101       0.00494442       0.00000360
Zr      -0.00000225       2.54961415      20.31559352       0.00029862       0.00084381      -0.00119639
Ti       2.93604401       2.55699002      20.32389347      -0.00029009      -0.00173252       0.00376647
Ti       0.00003791       6.55075297      20.79680848      -0.00039819       0.00582567       0.00293987
Ti       2.93601894       6.64538424      20.81345025       0.00015267      -0.00503640       0.00226732
Ti       1.51221785       4.49323287      22.00123605       0.00149585       0.00402299       0.00272107
Ti       4.35983233       4.49319471      22.00125724      -0.00152339       0.00464450       0.00218698
Ti       1.49741894       1.46650906      22.63341456       0.00451077       0.00016835      -0.00361813
Ti       4.37461709       1.46655197      22.63348375      -0.00439909      -0.00034932      -0.00437100
Ti       2.93600404       6.22503284      23.83440055       0.00043012      -0.00014637      -0.00023551
Ti       0.00007137       6.22934226      23.83259983      -0.00034127      -0.00551504       0.00029800
Ti       2.93606371       3.40832040      24.22617819      -0.00059279       0.00216757      -0.00336249
Ti      -0.00006802       3.40614689      24.19673130       0.00085149       0.00818154       0.00106394
Ti       4.41430859       1.33391466      25.41275355      -0.00105850       0.00019193       0.00147339
Ti       1.45775589       1.33389454      25.41275822       0.00069196       0.00084764       0.00083332
Ti       4.40304532       5.00335984      26.02039884      -0.00113864      -0.00132603      -0.00645688
Ti       1.46902559       5.00340270      26.02039684       0.00099273      -0.00182623      -0.00678845
