64
Lattice="5.871999 0.0 0.0 0.0 6.890708 0.0 0.0 0.0 27.401158" Properties=species:S:1:pos:R:3:forces:R:3 job_name=T1m-Zn-Zn-45-d-4.84 GB_type=T1m element=Zn system=Zn-45-d-4.84 distance=4.84 energy=-488.77699839 stress_kbar_3x3="_JSON [[-10.792064, 7.08e-06, 0.00072378], [7.1e-06, -12.48644999, 0.81434981], [0.0007238, 0.81434979, -17.75586027]]" pbc="T T T"
Ti       2.94166934       0.10974567      27.39676627       0.00162995       0.00472513      -0.00024816
Ti       2.93776244       2.94376882      27.39449179       0.00011727      -0.00191313      -0.00010434
Ti       5.86637706       0.10974259      27.39677407      -0.00159370       0.00456236      -0.00024941
Ti       5.87030477       2.94374919      27.39449302      -0.00007558      -0.00186348      -0.00008635
Ti       4.40401741       5.03247418       1.40854810       0.00008525      -0.00185712       0.00775171
Ti       1.46802680       5.03050257       1.40823193      -0.00015320       0.00025300       0.00612623
Ti       4.40402491       1.32240455       2.02929990       0.00005464       0.00235744       0.00417011
Ti       1.46801451       1.32247952       2.02362142      -0.00000481       0.00323612       0.00468229
Ti       2.93542314       3.41378652       3.20709224      -0.00070849       0.00024176       0.00047937
Ti       0.00061327       3.41378414       3.20708919       0.00066430       0.00028875       0.00048037
Ti       2.93679932       6.22960179       3.61676816      -0.00006600       0.00020873       0.00275341
Ti       5.87123105       6.22959302       3.61676929       0.00010443       0.00024601       0.00273859
Ti       1.46801927       1.49058803       4.83637855      -0.00001339       0.00064951       0.00061793
Ti       4.40402005       1.49291723       4.83863429      -0.00000463      -0.00206290       0.00372595
Ti       1.46802114       4.44069798       5.43840400      -0.00001985       0.00008422       0.00484543
Ti       4.40401987       4.44159232       5.44381048       0.00002926      -0.00020504      -0.00085595
Ti       2.93837541       6.59589896       6.60541952      -0.00101590       0.00182465       0.00383572
Ti       5.86965078       6.59589804       6.60542005       0.00097838       0.00185699       0.00387456
Ti       2.93832498       2.51911055       7.10562520      -0.00179656      -0.00146947       0.00124612
Ti       5.86970632       2.51910976       7.10563188       0.00170555      -0.00146333       0.00116090
Ti       4.40401044       4.67429753       8.27087011      -0.00003038      -0.00008167       0.00114206
Ti       1.46800607       4.66989506       8.26175312       0.00007615       0.00411252       0.00392998
Ti       4.40401002       0.73394034       8.88529893      -0.00002409       0.00070838      -0.00089664
Ti       1.46800924       0.73785875       8.85991957      -0.00000215      -0.00151718       0.00123601
Ti       0.00195123       2.88984688      10.10288411      -0.00064580       0.00122953      -0.00113646
Ti       2.93404431       2.88984764      10.10288065       0.00063787       0.00124342      -0.00113632
Ti       5.86380108       5.70436016      10.49513539       0.00324515       0.00363230      -0.00119183
Ti       2.94420741       5.70435962      10.49513468      -0.00321989       0.00361936      -0.00122240
Ti       1.46799585       0.89333017      11.66126599       0.00002436      -0.00227031      -0.00449725
Ti       4.40398748       0.90688771      11.70869112       0.00001045      -0.00451069      -0.00573414
Ti       1.46798921       4.10927037      12.31549960      -0.00002774       0.00899285      -0.00383377
Ti       4.40399659       4.09140790      12.29025387       0.00007006       0.00446025      -0.00033808
Ti       2.87559651       2.13832528      13.69883971       0.00322438      -0.00529391       0.00532752
Ti       0.06039609       2.13832688      13.69883407      -0.00315603      -0.00520913       0.00536146
Ti       2.91410830       6.17912275      13.71455253       0.00129928       0.00316427       0.00275991
Ti       0.02187322       6.17912543      13.71455132      -0.00130370       0.00314714       0.00277758
Ti       4.40399673       4.09675242      15.13353282       0.00004214       0.00344110       0.00986366
Ti       1.46799263       4.07424216      15.17897867       0.00001072       0.00304925       0.00076996
Ti       4.40399962       0.91693566      15.65442703       0.00000655      -0.00567395      -0.00299388
Ti       1.46799379       0.92124592      15.77219758       0.00002335      -0.00186646       0.00309703
Ti       2.97059778       5.73131158      16.92092578      -0.00068876       0.00817223       0.00515680
Ti       5.83740962       5.73131039      16.92092085       0.00069019       0.00822117       0.00518379
Ti       2.92271462       2.85660201      17.32418001       0.00319480      -0.00321832       0.00864999
Ti       0.01327945       2.85660061      17.32418554      -0.00318648      -0.00328818       0.00862455
Ti       4.40400861       0.67193412      18.48225777       0.00002518       0.00212262       0.01064672
Zn       1.46801027       0.69715699      18.56051200       0.00000833      -0.00100436      -0.00498846
Ti       4.40401555       4.61154308      19.14546918      -0.00019920       0.00325624      -0.00429602
Ti       1.46801038       4.70943054      19.13431611       0.00007403      -0.00032753      -0.00247416
Ti       0.03453004       2.49299489      20.28308267       0.00137046      -0.00778602      -0.00065060
Ti       2.90153407       2.49299015      20.28308461      -0.00133155      -0.00772145      -0.00073044
Ti       0.00924971       6.59642910      20.79077598      -0.00189842       0.00169965      -0.00325675
Ti       2.92678708       6.59642711      20.79077012       0.00189703       0.00175506      -0.00319611
Ti       1.46803663       4.45489640      21.92056461       0.00002970      -0.00285662      -0.00559528
Ti       4.40403594       4.44024748      21.94860000       0.00001416       0.00023506      -0.00369480
Ti       1.46803024       1.50578235      22.58116450       0.00009540      -0.00357670      -0.00597149
Ti       4.40403776       1.50019416      22.54365828      -0.00006200      -0.00418536      -0.00870603
Ti       2.93839727       6.22572198      23.75972678      -0.00254839      -0.00111515      -0.00865436
Ti       5.86969019       6.22571670      23.75971218       0.00245297      -0.00105644      -0.00848451
Ti       2.93408178       3.42205031      24.18955795       0.00199412      -0.00276033      -0.00450941
Ti       0.00198409       3.42204661      24.18955759      -0.00207857      -0.00263857      -0.00440704
Ti       4.40404247       1.31689782      25.35193637       0.00004030      -0.00077893      -0.00739023
Ti       1.46803345       1.32129224      25.37278906      -0.00006043      -0.00260754      -0.00598469
Ti       4.40403156       5.03908483      25.98242522      -0.00001807      -0.00436717      -0.00988837
Ti       1.46803829       5.04010712      25.98442866       0.00000761      -0.00025063      -0.00561199
