64
Lattice="5.871999 0.0 0.0 0.0 6.890708 0.0 0.0 0.0 27.401158" Properties=species:S:1:pos:R:3:forces:R:3 job_name=T1m-Zn-Zn-39-d-2.03 GB_type=T1m element=Zn system=Zn-39-d-2.03 distance=2.03 energy=-488.80531082 stress_kbar_3x3="_JSON [[-12.35256363, -0.00086169, 0.00028087], [-0.0008617, -15.66021294, -0.94702153], [0.00028086, -0.94702154, -17.81759423]]" pbc="T T T"
Ti       2.93941708       0.10282503      27.39819831       0.00172580       0.00027089      -0.00198742
Ti       2.93718440       2.94140280      27.39717393      -0.00181458      -0.00090938      -0.00443456
Ti       5.86863486       0.10281248      27.39821715      -0.00173758       0.00029365      -0.00210602
Ti       5.87086170       2.94140067      27.39719515       0.00183539      -0.00092025      -0.00439797
Ti       4.40401586       5.02906026       1.40670181      -0.00001834      -0.00535083      -0.00065920
Ti       1.46804154       5.02944746       1.41075992      -0.00004966      -0.00489602      -0.00372852
Ti       4.40403416       1.32001611       2.02399006      -0.00005259       0.00324564       0.00274441
Ti       1.46798559       1.32209495       2.02305859       0.00004622       0.00176429      -0.00097236
Ti       2.93701562       3.41250079       3.20455512      -0.00147179       0.00009691       0.00074958
Ti       5.87098824       3.41251538       3.20454703       0.00159837      -0.00001832       0.00076872
Ti       2.93670087       6.22968365       3.61473286      -0.00012813       0.00446148       0.00154685
Ti       5.87132144       6.22968007       3.61473260       0.00020331       0.00455705       0.00152877
Ti       1.46805563       1.49395260       4.83377950      -0.00015968       0.00232967      -0.00121386
Ti       4.40404076       1.49645397       4.83360677       0.00002373       0.00095214       0.00178003
Ti       1.46799935       4.44268957       5.43612160       0.00008545       0.00496896      -0.00145179
Ti       4.40400128       4.44148016       5.43827812      -0.00000213       0.00921132      -0.00035499
Ti       2.93788760       6.60232158       6.59939397       0.00000199       0.00315818      -0.00265010
Ti       5.87019356       6.60231262       6.59938546      -0.00015263       0.00333528      -0.00259005
Ti       2.93712406       2.52299053       7.09933659      -0.00045093       0.00632029      -0.00179465
Ti       5.87088654       2.52300394       7.09937086       0.00053592       0.00623405      -0.00193437
Ti       4.40399990       4.69430491       8.26686302      -0.00000497       0.00532162       0.00180135
Ti       1.46800216       4.69123185       8.26102768      -0.00002332       0.00178731      -0.00003094
Ti       4.40402447       0.73079025       8.87535286       0.00005159       0.00087147       0.00569107
Ti       1.46801300       0.73181031       8.85775394      -0.00003917       0.00418780      -0.00503919
Ti       5.87124827       2.90712228      10.07498960       0.00116956       0.00003066       0.00375232
Ti       2.93674657       2.90711444      10.07499183      -0.00111748      -0.00004871       0.00376576
Ti       5.86888949       5.70349844      10.51117504      -0.00074134      -0.00012840       0.00088128
Ti       2.93908482       5.70349267      10.51118895       0.00080468      -0.00006756       0.00079046
Ti       1.46799062       0.94983271      11.64143214      -0.00007283       0.00338500      -0.00619774
Ti       4.40400690       0.94066128      11.68176939       0.00003402       0.00015319      -0.00376207
Ti       1.46800200       4.05982309      12.30893788      -0.00012045      -0.00361671       0.00020411
Ti       4.40397751       4.06191668      12.29151977       0.00011064      -0.00274692       0.00579913
Ti       2.90076862       2.07827223      13.71900708      -0.00791623      -0.00172468       0.00688278
Ti       0.03525977       2.07830241      13.71903128       0.00775560      -0.00184308       0.00678801
Ti       2.92807724       6.19126513      13.69804147      -0.00128736       0.00393941       0.00082119
Ti       0.00790226       6.19127593      13.69802856       0.00129598       0.00387740       0.00088668
Ti       4.40398887       4.07345631      15.09842194       0.00008770       0.00064545      -0.00209290
Ti       1.46802942       4.00111501      15.12804476      -0.00011770      -0.01563479       0.00674911
Ti       4.40398445       0.98814073      15.80046785       0.00011468       0.00129414       0.00675611
Zn       1.46799682       0.93721705      15.73199050      -0.00000745      -0.00670747      -0.00003898
Ti       2.93236863       5.72502986      16.88361956      -0.00541974      -0.00071391       0.00093053
Ti       0.00364675       5.72500996      16.88361277       0.00546490      -0.00059049       0.00097064
Ti       2.96381296       2.87109271      17.33809117      -0.00173277       0.00315912      -0.00473604
Ti       5.84419644       2.87108181      17.33806178       0.00176596       0.00316722      -0.00471307
Ti       4.40401045       0.70290368      18.61020936      -0.00000464      -0.00730920       0.01275115
Ti       1.46801517       0.69032985      18.52565717      -0.00000945      -0.00472334      -0.00196992
Ti       4.40401995       4.66576773      19.11610096      -0.00004888      -0.00273922      -0.00690405
Ti       1.46802104       4.72184326      19.07664916      -0.00009424       0.00072634      -0.01167077
Ti       0.02181178       2.52131618      20.29756462       0.00486352       0.00363426       0.00099911
Ti       2.91421780       2.52133563      20.29758293      -0.00474563       0.00354016       0.00096889
Ti       0.01845520       6.57461126      20.80560696       0.00413526      -0.00242635      -0.00205245
Ti       2.91758864       6.57460849      20.80562841      -0.00407054      -0.00240559      -0.00214517
Ti       1.46805201       4.42506866      21.95449448      -0.00005001       0.00448560      -0.00251815
Ti       4.40404403       4.43017506      21.96744526      -0.00012674      -0.00136563       0.00216060
Ti       1.46801952       1.49663604      22.56325588       0.00001497       0.00183493       0.00205779
Ti       4.40403429       1.48823022      22.54143329      -0.00000278      -0.00359657       0.00235755
Ti       2.93491348       6.23064751      23.77655513       0.00325460       0.00076853      -0.00150996
Ti       0.00115769       6.23064648      23.77653657      -0.00328311       0.00081521      -0.00143778
Ti       2.93530149       3.40881740      24.19534501       0.00112935      -0.00507039       0.00329894
Ti       0.00078034       3.40882575      24.19535398      -0.00113095      -0.00511505       0.00327451
Ti       4.40403921       1.31779208      25.36273230      -0.00001671      -0.00079447      -0.00184859
Ti       1.46800787       1.32267622      25.37540675       0.00008205      -0.00408079      -0.00262186
Ti       4.40400657       5.03257222      25.98204844       0.00007200      -0.00719765       0.00171858
Ti       1.46804888       5.02928623      25.98720912      -0.00004072      -0.00608287      -0.00061054
