64
Lattice="5.871999 0.0 0.0 0.0 6.890708 0.0 0.0 0.0 27.401158" Properties=species:S:1:pos:R:3:forces:R:3 job_name=T1m-Zn-Zn-49-d-6.60 GB_type=T1m element=Zn system=Zn-49-d-6.60 distance=6.6 energy=-488.79053624 stress_kbar_3x3="_JSON [[-12.12328378, 0.00052475, -0.00049602], [0.00052476, -12.27197494, -0.99941493], [-0.00049603, -0.99941491, -20.6531288]]" pbc="T T T"
Ti       2.93602136       0.11112479      27.39870632       0.00001364      -0.00149753       0.00263002
Ti       2.93601930       2.94699682      27.37457700       0.00003973      -0.00243593      -0.00291524
Ti       0.00004977       0.10279727      27.39484961      -0.00000117      -0.00240921       0.00115719
Ti       0.00003739       2.94317592      27.36821274      -0.00005132      -0.00241900      -0.00320769
Ti       4.40118467       5.03115905       1.39829268      -0.00011481      -0.00242241       0.00014203
Ti       1.47081569       5.03117137       1.39830268       0.00026053      -0.00251683       0.00002743
Ti       4.40698002       1.33304267       2.01402086       0.00194936       0.00379001      -0.00208266
Ti       1.46509946       1.33303889       2.01400228      -0.00193492       0.00386136      -0.00184293
Ti       2.93602384       3.42328226       3.20358367      -0.00005130       0.00193931       0.00356309
Ti       0.00002233       3.42170710       3.20003149       0.00002151       0.00290232       0.00517817
Ti       2.93602146       6.23973026       3.60664740       0.00005096       0.00229749      -0.00335914
Ti       0.00003352       6.23866933       3.60626087      -0.00002899       0.00166413      -0.00308566
Ti       1.46838313       1.50325306       4.82950982      -0.00026420       0.00088735       0.00028272
Ti       4.40364975       1.50324907       4.82949247       0.00018443       0.00096129       0.00034241
Ti       1.46800407       4.45362699       5.43561459       0.00128032       0.00572805      -0.00000960
Ti       4.40404879       4.45359615       5.43559217      -0.00143311       0.00589757       0.00026716
Ti       2.93599789       6.61004398       6.59784779       0.00002050       0.00599989       0.00060312
Ti      -0.00005134       6.60848637       6.59803517       0.00014928       0.00443812       0.00132927
Ti       2.93601844       2.53623094       7.10282732       0.00002003       0.00576176       0.00168167
Ti       0.00000483       2.53554698       7.10216355       0.00000664       0.00574930      -0.00081953
Ti       4.40389505       4.69691321       8.26688787      -0.00088442       0.00515047      -0.00049554
Ti       1.46810526       4.69689764       8.26684562       0.00083759       0.00521086      -0.00017603
Ti       4.40299825       0.74889616       8.87125559       0.00069700       0.00471210       0.00039250
Ti       1.46899520       0.74890344       8.87124946      -0.00070447       0.00472468       0.00042870
Ti       0.00001580       2.90876780      10.07901139      -0.00007410       0.00238099      -0.00328753
Ti       2.93599523       2.90974237      10.08240850       0.00002781       0.00317924      -0.00182265
Ti      -0.00000461       5.73040473      10.51309063       0.00008100       0.00333705      -0.00265923
Ti       2.93600613       5.73233347      10.51707974      -0.00004416       0.00499658      -0.00110951
Ti       1.46512932       0.94965508      11.68969632      -0.00230640       0.00453120      -0.00157945
Ti       4.40691373       0.94964617      11.68968098       0.00224996       0.00462525      -0.00139869
Ti       1.46491097       4.09195900      12.30568604      -0.00017528      -0.00150216       0.00356421
Ti       4.40708772       4.09195372      12.30567314       0.00020362      -0.00149753       0.00363297
Ti       2.93599451       2.14142454      13.75215423       0.00001113       0.00507557       0.00582328
Ti       0.00002626       2.14999280      13.75905333      -0.00005621       0.00561892       0.00561073
Ti       2.93601283       6.19753454      13.69946772      -0.00000264       0.00036824      -0.00212173
Ti       0.00001610       6.19878785      13.67831461      -0.00002606       0.00037461      -0.00095240
Ti       4.39733457       4.13138837      15.13240720      -0.00055798       0.00275724      -0.00249756
Ti       1.47467627       4.13137633      15.13241087       0.00056096       0.00278573      -0.00240025
Ti       4.39542766       0.87639336      15.74962348      -0.00109878      -0.00251685      -0.00184662
Ti       1.47655581       0.87638527      15.74961680       0.00110705      -0.00248114      -0.00172776
Ti       2.93600653       5.68304087      17.01578365       0.00003541      -0.00482580       0.00290681
Ti       0.00001223       5.71161853      16.97291652      -0.00001852      -0.00323695       0.00369429
Ti       2.93601161       2.87482177      17.31255759      -0.00009330      -0.00288836      -0.00278748
Ti      -0.00004021       2.88290122      17.26516701       0.00017258      -0.00503539      -0.00317025
Ti       4.43175794       0.73117747      18.58021404      -0.00110048      -0.00047334       0.00040624
Ti       1.44026652       0.73117425      18.58021420       0.00113388      -0.00048560       0.00036465
Ti       4.38974662       4.61117405      19.15018051      -0.00380940      -0.00751533      -0.00208030
Ti       1.48229083       4.61119864      19.15014898       0.00379469      -0.00757027      -0.00195981
Ti       0.00002316       2.43676374      20.25916452      -0.00005315      -0.00743772      -0.00343882
Zn       2.93601211       2.49744085      20.28122100       0.00000633      -0.00695232       0.00385900
Ti       0.00002589       6.49597883      20.81458016      -0.00003784      -0.00386437      -0.00173495
Ti       2.93601422       6.58821362      20.79796137      -0.00002306      -0.00850220      -0.00323715
Ti       1.50856883       4.38399066      21.95151419       0.00248796      -0.00326300       0.00026234
Ti       4.36346817       4.38399102      21.95152792      -0.00242907      -0.00327800       0.00024925
Ti       1.47315175       1.46836115      22.51974647       0.00141001      -0.00379819       0.00454558
Ti       4.39888779       1.46836735      22.51976875      -0.00133652      -0.00376171       0.00447364
Ti       2.93606663       6.23534972      23.71051037      -0.00013491      -0.00366470       0.00155203
Ti       0.00003065       6.21976371      23.76421168      -0.00000531      -0.00359329       0.00141307
Ti       2.93602895       3.40277640      24.22167458       0.00001114      -0.00309789       0.00085653
Ti       0.00002447       3.39110346      24.17729792       0.00000308      -0.00216908       0.00047920
Ti       4.41087704       1.29476596      25.34449177      -0.00163080      -0.00406345      -0.00077881
Ti       1.46120855       1.29478861      25.34449224       0.00162607      -0.00415215      -0.00086547
Ti       4.39708313       5.04377646      25.96692041      -0.00043693       0.00180128      -0.00014386
Ti       1.47498265       5.04376913      25.96692215       0.00046542       0.00181974      -0.00012500
