64
Lattice="5.871999 0.0 0.0 0.0 6.890708 0.0 0.0 0.0 27.401158" Properties=species:S:1:pos:R:3:forces:R:3 job_name=T1m-Zr-Zr-46-d-5.43 GB_type=T1m element=Zr system=Zr-46-d-5.43 distance=5.43 energy=-495.68206501 stress_kbar_3x3="_JSON [[-2.52158819, 0.00165813, -0.00098795], [0.00165813, -3.19359401, 0.00839368], [-0.00098797, 0.00839368, -10.42940774]]" pbc="T T T"
Ti       2.94570801       0.10142172       0.02636114      -0.00162377       0.00260072       0.00264206
Ti       2.93742822       2.94049612       0.02328762      -0.00089452      -0.00218290       0.00597283
Ti       5.86236339       0.10142515       0.02638573       0.00158807       0.00275273       0.00233265
Ti       5.87062818       2.94050395       0.02328598       0.00089496      -0.00211510       0.00591481
Ti       4.40401772       5.02597814       1.42691213      -0.00013020      -0.00188215       0.01784154
Ti       1.46798353       5.02833293       1.43476627       0.00026118      -0.00378287       0.01587174
Ti       4.40401633       1.32075576       2.04606506      -0.00002538       0.00450614       0.00522739
Ti       1.46805067       1.32124161       2.03979949       0.00015030       0.00361229      -0.00082652
Ti       2.93573039       3.40957885       3.21603063      -0.00349231      -0.00167189      -0.00735491
Ti       0.00029981       3.40956232       3.21601114       0.00343770      -0.00161381      -0.00703520
Ti       2.93707396       6.23101997       3.62526069      -0.00134579      -0.00278719      -0.01250499
Ti       5.87097465       6.23102407       3.62523566       0.00123985      -0.00274246      -0.01211311
Ti       1.46802200       1.49173941       4.84020224      -0.00008789       0.00236641      -0.00860782
Ti       4.40399715       1.48968565       4.84572531       0.00021492       0.00474708      -0.00300074
Ti       1.46802348       4.44071623       5.43642899      -0.00013835      -0.00014381      -0.00754201
Ti       4.40399673       4.44116384       5.43658163       0.00007080      -0.00139528      -0.01121287
Ti       2.93288798       6.59383286       6.59466350      -0.00173997       0.00082090      -0.00627190
Ti       0.00310196       6.59386505       6.59470175       0.00180955       0.00014487      -0.00695117
Ti       2.93284045       2.52470108       7.09544421       0.00683695       0.00130551      -0.00180621
Ti       0.00320430       2.52470295       7.09546151      -0.00668771       0.00128332      -0.00208197
Ti       4.40399008       4.67738505       8.25207592      -0.00017992      -0.00368702       0.00517485
Ti       1.46799289       4.68087750       8.25493001       0.00005629       0.00189930      -0.00432530
Ti       4.40405146       0.73819590       8.83769604      -0.00030356      -0.00007781      -0.00118748
Ti       1.46800978       0.73448561       8.85829977       0.00021859      -0.00613324       0.01183921
Ti       5.87102454       2.88957600      10.06357059       0.00100179       0.00138073       0.01366717
Ti       2.93694086       2.88958821      10.06360779      -0.00092177       0.00136578       0.01337514
Ti       0.00722740       5.70969942      10.47673019      -0.00408887       0.00330912       0.00608534
Ti       2.92876324       5.70974065      10.47673671       0.00423391       0.00295685       0.00601533
Ti       1.46797257       0.91589030      11.66808049      -0.00029681       0.00825531       0.00344646
Ti       4.40397941       0.90845667      11.63485248       0.00005047      -0.00252664      -0.01489367
Ti       1.46800617       4.08299696      12.25070741      -0.00015248      -0.00540916      -0.00171773
Ti       4.40401824       4.09073067      12.26903141       0.00001120       0.00043422      -0.01264184
Ti       2.98215704       2.12329010      13.67321503      -0.00575197      -0.00097423      -0.00539701
Ti       5.82579684       2.12328197      13.67324898       0.00614275      -0.00095374      -0.00563437
Ti       2.94632555       6.17610074      13.66712207      -0.00159326       0.00167620      -0.00042845
Ti       5.86163303       6.17612271      13.66709251       0.00173239       0.00158371      -0.00061020
Ti       4.40403008       4.10236721      15.09382763      -0.00030788      -0.00390490       0.01304910
Ti       1.46798101       4.08183632      15.05751602       0.00026785       0.00057106       0.01315495
Ti       4.40400818       0.89394280      15.72699228      -0.00030404       0.00171387       0.00547210
Ti       1.46800102       0.92596760      15.66865417       0.00015769      -0.00951937       0.01568735
Ti       2.88911934       5.71899451      16.83324894      -0.01584522       0.00318527      -0.00135749
Ti       0.04694471       5.71904334      16.83317826       0.01568439       0.00285874      -0.00108153
Ti       2.89070117       2.85596783      17.26360949      -0.00736110      -0.00025493       0.00144471
Ti       0.04533124       2.85599019      17.26360833       0.00720232      -0.00040948       0.00107476
Ti       4.40404963       0.79445851      18.55703338      -0.00031509       0.00782698      -0.00531965
Ti       1.46796609       0.70213484      18.50730738       0.00070004       0.00713665      -0.00991263
Zr       4.40393343       4.65601853      19.12161466       0.00013319       0.00516252       0.01341071
Ti       1.46809055       4.65747865      19.10693191      -0.00018048      -0.00001663      -0.01530289
Ti       0.04450839       2.47432501      20.33956880       0.00180380      -0.01286847       0.00136072
Ti       2.89162325       2.47434982      20.33960401      -0.00228942      -0.01328660       0.00114100
Ti       0.01616619       6.62214791      20.85014627      -0.00262669       0.00644307      -0.00183791
Ti       2.91991104       6.62208857      20.85009701       0.00222204       0.00718169      -0.00157886
Ti       1.46800856       4.43130676      21.96421867       0.00041493       0.00061842       0.01977013
Ti       4.40405536       4.44215978      22.04231023      -0.00007535      -0.00388624      -0.00660928
Ti       1.46799738       1.50654121      22.62266796       0.00011080       0.00211497      -0.01860967
Ti       4.40402134       1.49309289      22.59915325       0.00002113       0.00227946      -0.01896590
Ti       2.93021794       6.22863192      23.81780727      -0.00740484       0.00372481       0.00336243
Ti       0.00582586       6.22866556      23.81781026       0.00742204       0.00308199       0.00327664
Ti       2.92251104       3.41698130      24.22839357       0.00143161      -0.00551524       0.00128893
Ti       0.01357341       3.41695442      24.22841077      -0.00148019      -0.00522787       0.00131117
Ti       4.40403075       1.31808104      25.39697961      -0.00007776      -0.00185185       0.00543109
Ti       1.46803943       1.31592762      25.41374344       0.00011981      -0.00183760       0.00364015
Ti       4.40404625       5.02973570      26.00852036       0.00021087      -0.00369456      -0.00310292
Ti       1.46802587       5.03223671      26.02617798      -0.00013161       0.00145235      -0.00145822
