64
Lattice="5.871999 0.0 0.0 0.0 6.890708 0.0 0.0 0.0 27.401158" Properties=species:S:1:pos:R:3:forces:R:3 job_name=T1m-Zn-Zn-46-d-5.43 GB_type=T1m element=Zn system=Zn-46-d-5.43 distance=5.43 energy=-488.76607838 stress_kbar_3x3="_JSON [[-13.20923524, 0.00030321, -1.735e-05], [0.00030324, -13.79178927, 0.54923653], [-1.736e-05, 0.54923649, -19.70727529]]" pbc="T T T"
Ti       2.92479731       0.09826875      27.39456946      -0.00166550       0.00179721      -0.00148450
Ti       2.93650434       2.93518077      27.38586267      -0.00004040      -0.00107989      -0.00053771
Ti       0.01127639       0.09827306      27.39457569       0.00166474       0.00178685      -0.00149825
Ti       5.87155451       2.93518288      27.38585348       0.00007357      -0.00104710      -0.00058785
Ti       4.40401776       5.02713551       1.41100155      -0.00000564      -0.00594867      -0.00550347
Ti       1.46803441       5.02305185       1.39738088      -0.00001090      -0.00615856      -0.00367857
Ti       4.40401167       1.31954987       2.02140161      -0.00000469       0.00165808      -0.00619018
Ti       1.46804130       1.31949909       2.02206327      -0.00002706       0.00218036      -0.00434956
Ti       2.93664603       3.41050853       3.20375484       0.00085387      -0.00123020       0.00064901
Ti       5.87139044       3.41053490       3.20376359      -0.00082850      -0.00141313       0.00064029
Ti       2.93530951       6.22870597       3.61156915       0.00025219      -0.00337756       0.00229913
Ti       0.00072635       6.22870147       3.61155263      -0.00023867      -0.00339738       0.00243086
Ti       1.46802034       1.48923950       4.83276471       0.00001817       0.00020691       0.00240799
Ti       4.40398186       1.49031174       4.83309529       0.00002798       0.00122743       0.00290053
Ti       1.46801113       4.44037087       5.43609444       0.00011773      -0.00050897       0.00408132
Ti       4.40401985       4.44143611       5.43719804      -0.00006393      -0.00155792       0.00498699
Ti       2.93547527       6.59527798       6.59864793       0.00065242      -0.00285058       0.00467968
Ti       0.00053967       6.59528505       6.59862928      -0.00069103      -0.00292378       0.00480620
Ti       2.93599118       2.51911176       7.10158018       0.00083406       0.00221785       0.00218325
Ti       0.00001890       2.51911578       7.10157924      -0.00084443       0.00226164       0.00225346
Ti       4.40399264       4.67245013       8.26401827       0.00002053      -0.00097149      -0.00176653
Ti       1.46798706       4.67443331       8.26097303      -0.00000966      -0.00083343      -0.00116422
Ti       4.40401516       0.73231013       8.86719696      -0.00004177      -0.00185955       0.00210659
Ti       1.46799677       0.73283994       8.86859284       0.00003341      -0.00149180      -0.00014982
Ti       0.00132669       2.88569733      10.09331242       0.00218765       0.00096085       0.00641306
Ti       2.93467707       2.88571509      10.09331536      -0.00217416       0.00077616       0.00627140
Ti       0.00077863       5.70017359      10.49860975       0.00204240      -0.00209799       0.00600963
Ti       2.93519986       5.70016437      10.49861336      -0.00203844      -0.00202099       0.00602285
Ti       1.46800065       0.90394264      11.67968644      -0.00006195      -0.00015656      -0.00568004
Ti       4.40398876       0.90067764      11.67906942       0.00005761      -0.00112865      -0.00762085
Ti       1.46799510       4.08878263      12.31149580      -0.00000833       0.00459217      -0.00075644
Ti       4.40399258       4.08351902      12.28970919       0.00000464       0.00464744       0.00225716
Ti       2.92850688       2.11593113      13.70626311       0.00242698       0.00312707      -0.00256804
Ti       0.00749662       2.11596650      13.70625982      -0.00248256       0.00285432      -0.00268471
Ti       2.93183490       6.18196059      13.72453987       0.00271773      -0.00646647       0.00185161
Ti       0.00415627       6.18196542      13.72453978      -0.00271449      -0.00641421       0.00186682
Ti       4.40400882       4.08177615      15.09322360      -0.00000781       0.00678117      -0.00320562
Ti       1.46800087       4.07369113      15.13344416      -0.00000301       0.00943906      -0.00341084
Ti       4.40399535       0.88334165      15.76597630       0.00004498      -0.00437070       0.00342534
Ti       1.46799955       0.89934901      15.74544174      -0.00001664      -0.00455122       0.01091591
Ti       2.95570284       5.69212587      16.92268621       0.00899694       0.01617030      -0.00389511
Ti       5.85232722       5.69212945      16.92267638      -0.00901491       0.01614735      -0.00386254
Ti       2.96655760       2.91211585      17.33743371       0.00678825      -0.00789447       0.00080979
Ti       5.84142096       2.91209789      17.33743477      -0.00677078      -0.00788865       0.00077746
Ti       4.40400491       0.68430815      18.53955181       0.00001494      -0.00190966      -0.00699106
Ti       1.46802210       0.78953544      18.53333640      -0.00002896       0.00148882      -0.00286530
Zn       4.40401736       4.71624321      19.13001351       0.00002832       0.00642970       0.00246069
Ti       1.46801778       4.74369218      19.19631725      -0.00001483       0.00979212       0.00333415
Ti       5.85142563       2.55377129      20.28676588      -0.00207521      -0.00286033       0.00215458
Ti       2.95664123       2.55374959      20.28676902       0.00195319      -0.00288285       0.00216537
Ti       0.02291058       6.57762779      20.79016776      -0.00197961       0.00029120      -0.00313924
Ti       2.91313369       6.57762756      20.79015565       0.00202047       0.00022798      -0.00310400
Ti       1.46805006       4.42917095      22.03208192      -0.00009070      -0.00027928       0.00307097
Ti       4.40404348       4.42061733      21.93470522       0.00004497      -0.00165641       0.00103141
Ti       1.46801976       1.47275262      22.52889357       0.00007900       0.00214041      -0.00048265
Ti       4.40403605       1.52267805      22.49719854       0.00001009       0.00287895       0.00225253
Ti       2.95788184       6.23464151      23.77125726       0.00154355      -0.00007748      -0.00610976
Ti       5.85019132       6.23464548      23.77127063      -0.00149790      -0.00008163      -0.00623383
Ti       2.96533907       3.39537579      24.18814576       0.00082609      -0.00176794      -0.00864907
Ti       5.84274091       3.39539943      24.18813232      -0.00081047      -0.00180000      -0.00855118
Ti       4.40403547       1.30086537      25.35843219      -0.00008617      -0.00222891      -0.00057865
Ti       1.46802398       1.31658005      25.36355597       0.00000301      -0.00134188      -0.00084236
Ti       4.40404003       5.03560439      25.98572058       0.00003722      -0.00245626       0.00409894
Ti       1.46805317       5.02280860      25.95945054      -0.00002753      -0.00309884       0.00452700
