64
Lattice="5.871999 0.0 0.0 0.0 6.890708 0.0 0.0 0.0 27.401158" Properties=species:S:1:pos:R:3:forces:R:3 job_name=T1m-Cu-Cu-38-d-2.03 GB_type=T1m element=Cu system=Cu-38-d-2.03 distance=2.03 energy=-491.07297929 stress_kbar_3x3="_JSON [[-13.70745316, 0.00147565, -0.00084791], [0.00147567, -17.55743273, 0.06640096], [-0.00084788, 0.06640095, -21.48558353]]" pbc="T T T"
Ti       2.92752846       0.10144041      27.39479498       0.00049410       0.00586536       0.00244842
Ti       2.93388695       2.93883377      27.38700352       0.00213736       0.00048650       0.00096662
Ti       0.00852390       0.10145354      27.39482917      -0.00050259       0.00573954       0.00237042
Ti       0.00218473       2.93884871      27.38699138      -0.00213989       0.00042731       0.00105582
Ti       4.40403685       5.02692950       1.40555069      -0.00010062      -0.00411153       0.00794568
Ti       1.46802834       5.02630075       1.40302543       0.00001510      -0.00482115       0.00580677
Ti       4.40403037       1.32545958       2.02027535      -0.00004133       0.01070263       0.00724269
Ti       1.46804316       1.32550995       2.02618424       0.00002528       0.00854504       0.00382636
Ti       2.93584012       3.41751230       3.21038288       0.00215267      -0.00053201       0.00298412
Ti       0.00019771       3.41749502       3.21038318      -0.00205074      -0.00037847       0.00295839
Ti       2.93529282       6.23370681       3.61564758       0.00031694      -0.00029931      -0.00058120
Ti       0.00077328       6.23372034       3.61562229      -0.00027534      -0.00038572      -0.00050642
Ti       1.46802310       1.50203160       4.84065295      -0.00012442       0.00000476      -0.00208479
Ti       4.40400289       1.49934389       4.83802097       0.00007264       0.00194569      -0.00871827
Ti       1.46802775       4.44854148       5.44866248      -0.00002374       0.00216614      -0.00555412
Ti       4.40403440       4.44883536       5.44490210       0.00004253       0.00054056      -0.00599573
Ti       2.93433548       6.61140889       6.60905862       0.00131429       0.00170061      -0.00507931
Ti       0.00167719       6.61140841       6.60904158      -0.00129473       0.00168350      -0.00502396
Ti       2.93409997       2.52818926       7.11211199       0.00071012      -0.00112183      -0.00120481
Ti       0.00197195       2.52818327       7.11212318      -0.00094132      -0.00125272      -0.00127298
Ti       4.40400631       4.69892798       8.27319012      -0.00001140       0.00021396       0.00625504
Ti       1.46798156       4.70436920       8.28268211       0.00020757       0.00192069       0.00513435
Ti       4.40401529       0.72657632       8.87543304       0.00005456      -0.00176220      -0.00105563
Ti       1.46802367       0.72438757       8.89627850      -0.00007944      -0.00443431       0.00632085
Ti       0.00038287       2.90465817      10.08357981      -0.00073835       0.00039992       0.00318624
Ti       2.93561180       2.90466463      10.08359288       0.00074643       0.00048357       0.00317302
Ti       0.00440687       5.69306802      10.54336703       0.00086908      -0.00075908       0.00245418
Ti       2.93161620       5.69308195      10.54336499      -0.00101117      -0.00084632       0.00232931
Ti       1.46799226       0.94834550      11.71468600       0.00006130      -0.00779577      -0.00635438
Ti       4.40400659       0.94207719      11.66986260      -0.00002345      -0.00552605       0.00007621
Ti       1.46798237       4.02426735      12.31737493       0.00010129      -0.00040397      -0.00654592
Ti       4.40402806       4.02052504      12.33225397      -0.00011766       0.00202800      -0.00750932
Ti       2.98448863       2.03577556      13.78060324      -0.00820439       0.00173977       0.00150296
Ti       5.82353008       2.03578300      13.78060744       0.00812895       0.00172336       0.00146903
Ti       2.95074479       6.16254202      13.70755790      -0.00381632      -0.00675926       0.00470091
Ti       5.85726063       6.16259591      13.70754112       0.00387439      -0.00706541       0.00471945
Ti       4.40404101       4.00061443      15.12285388      -0.00009200       0.00054537       0.00041869
Ti       1.46798802       4.06306600      15.10421893       0.00004783       0.00257262       0.00990074
Cu       4.40399308       0.96192742      15.76162811      -0.00000761      -0.00221652       0.00247440
Ti       1.46799256       1.00253096      15.83045342      -0.00000394      -0.00359325      -0.01545291
Ti       2.96690385       5.75053748      16.82843372       0.00301146      -0.00450477      -0.00907334
Ti       5.84109386       5.75054821      16.82843301      -0.00294160      -0.00456084      -0.00918260
Ti       2.90664065       2.86790738      17.32745066      -0.00092026       0.00163339      -0.00122472
Ti       0.02935906       2.86793243      17.32744307       0.00102916       0.00159584      -0.00121595
Ti       4.40398804       0.68882005      18.50452639       0.00002956       0.00987228       0.00616086
Ti       1.46800453       0.70939097      18.60325121      -0.00000853       0.00645979      -0.00769692
Ti       4.40401264       4.74316817      19.03859775      -0.00004430      -0.00596363       0.00788745
Ti       1.46802193       4.67629300      19.07433624      -0.00007348      -0.00109623       0.00733167
Ti       5.84774122       2.54236606      20.27422607      -0.00014795      -0.00218475       0.00339677
Ti       2.96028946       2.54236266      20.27422136       0.00018980      -0.00221139       0.00344179
Ti       5.84774505       6.57988887      20.79014634       0.00011226       0.00051091       0.00541741
Ti       2.96027042       6.57989051      20.79015850      -0.00014697       0.00048784       0.00545383
Ti       1.46801997       4.43418335      21.94360977       0.00002598      -0.00204663      -0.00067231
Ti       4.40403090       4.42459304      21.93760597      -0.00003595       0.00131770      -0.00262490
Ti       1.46801706       1.49267571      22.51562416      -0.00009828       0.00168394       0.00287603
Ti       4.40400196       1.50297929      22.54644324       0.00014971       0.00496199      -0.00591392
Ti       2.93630285       6.23213810      23.75891558      -0.00199109       0.00068798      -0.00198164
Ti       5.87175223       6.23209576      23.75890733       0.00189781       0.00096436      -0.00206792
Ti       2.93613718       3.40783222      24.18037818      -0.00031207      -0.00251815      -0.00260042
Ti       5.87189808       3.40784011      24.18038582       0.00033860      -0.00260321      -0.00270759
Ti       4.40405380       1.31963203      25.36574120      -0.00003911       0.00196219       0.00152036
Ti       1.46800867       1.31454300      25.34761601       0.00009758       0.00667356      -0.00820514
Ti       4.40403703       5.02956239      25.97552036      -0.00007226      -0.00566034      -0.00255134
Ti       1.46799294       5.03347478      25.97100549       0.00017796      -0.00283189      -0.00454840
