64
Lattice="5.871999 0.0 0.0 0.0 6.890708 0.0 0.0 0.0 27.401158" Properties=species:S:1:pos:R:3:forces:R:3 job_name=T1m-Al-Al-32-d-0.00 GB_type=T1m element=Al system=Al-32-d-0.00 distance=0.0 energy=-492.0578372 stress_kbar_3x3="_JSON [[-9.34234484, 0.00016442, -0.00015519], [0.00016445, -11.43137988, 0.00255727], [-0.00015518, 0.00255724, -19.59803253]]" pbc="T T T"
Ti       2.93603769       0.10126350      -0.00001936      -0.00001091      -0.00012258       0.00044657
Ti       2.93602347       2.93952231      -0.00001086       0.00000567      -0.00541783       0.00020671
Ti       0.00002149       0.10242329      -0.00001109       0.00002115       0.00000495       0.00042442
Ti       0.00002078       2.94223921      -0.00001088       0.00001775      -0.00574973       0.00020596
Ti       4.40447731       5.02921708       1.41372309       0.00027521      -0.00012243       0.00423006
Ti       1.46756797       5.02921687       1.41371604      -0.00025333      -0.00009943       0.00421734
Ti       4.40114614       1.32061244       2.02950854      -0.00014033      -0.00184192      -0.00199647
Ti       1.47090796       1.32060371       2.02950236       0.00014831      -0.00184164      -0.00204635
Ti       2.93601105       3.41205813       3.20776716       0.00006710       0.00143165       0.00262445
Ti       0.00002522       3.41001501       3.20700297      -0.00002657       0.00117856       0.00286587
Ti       2.93602624       6.23139624       3.62138392       0.00000220      -0.00255204       0.00186862
Ti       0.00002427       6.23176861       3.62343102       0.00000345      -0.00208666       0.00071880
Ti       1.46680620       1.49419720       4.84440845       0.00003317       0.00180165       0.00523906
Ti       4.40522458       1.49420079       4.84442076       0.00000997       0.00177474       0.00507694
Ti       1.46758429       4.43980893       5.44426949      -0.00002262       0.00158323       0.00353955
Ti       4.40445928       4.43980994       5.44427409       0.00001037       0.00156864       0.00347605
Ti       2.93601258       6.59375358       6.59979631      -0.00002712       0.00269588       0.00403855
Ti       0.00001167       6.59136493       6.60552221       0.00003566       0.00328078       0.00253230
Ti       2.93601603       2.52662916       7.11216200      -0.00002968       0.00306735       0.00414981
Ti       0.00001298       2.52205423       7.11394594       0.00004096       0.00272855       0.00362031
Ti       4.39467909       4.68342136       8.27277240       0.00086964       0.00248133       0.00505788
Ti       1.47733553       4.68342249       8.27277230      -0.00086868       0.00244811       0.00498825
Ti       4.40590158       0.73769580       8.88092794       0.00016762      -0.00015145       0.00108249
Ti       1.46611449       0.73769706       8.88094371      -0.00015957      -0.00014859       0.00091867
Ti       0.00000101       2.87228028      10.09659749      -0.00001103       0.00155584       0.00136776
Ti       2.93599865       2.90623389      10.05544493       0.00002709      -0.00030946       0.00410427
Ti       0.00001200       5.69891680      10.50189570      -0.00016658      -0.00214808       0.00611696
Ti       2.93599816       5.74433621      10.54178243       0.00007435      -0.00270411       0.00242286
Ti       1.47246442       0.90654612      11.71064628      -0.00024028       0.00072699       0.00407497
Ti       4.39952511       0.90654198      11.71065955       0.00030689       0.00064237       0.00383383
Ti       1.48785260       4.06727423      12.29391088      -0.00091143      -0.00137588      -0.00368464
Ti       4.38414659       4.06727259      12.29391505       0.00095155      -0.00124247      -0.00385399
Al       2.93602753       2.14622101      13.70054379      -0.00046326      -0.01715242       0.00009011
Ti       0.00000079       2.05227448      13.70060670       0.00014727      -0.00243240      -0.00028660
Ti       2.93598258       6.22042615      13.70058909       0.00000106       0.00171471      -0.00006738
Ti       5.87198830       6.10388450      13.70061080       0.00001633       0.00466105      -0.00026338
Ti       4.38411738       4.06726435      15.10724148       0.00098327      -0.00140983       0.00351000
Ti       1.48787449       4.06725398      15.10725531      -0.00091943      -0.00148393       0.00331682
Ti       4.39949666       0.90660023      15.69049443       0.00024515       0.00065074      -0.00407501
Ti       1.47249240       0.90659206      15.69052033      -0.00016749       0.00081648      -0.00440052
Ti       2.93599759       5.74437369      16.85928602       0.00010717      -0.00280663      -0.00239614
Ti       0.00001539       5.69893825      16.89919817      -0.00017640      -0.00209451      -0.00610740
Ti       2.93600278       2.90627579      17.34570066       0.00002841      -0.00032963      -0.00406920
Ti       0.00000565       2.87230955      17.30451472      -0.00000960       0.00153003      -0.00130704
Ti       4.40590401       0.73773101      18.52018561       0.00015246      -0.00023047      -0.00093489
Ti       1.46613563       0.73772817      18.52017535      -0.00022624      -0.00022825      -0.00085269
Ti       4.39468390       4.68346666      19.12834217       0.00089003       0.00253269      -0.00497275
Ti       1.47734592       4.68346522      19.12833882      -0.00088153       0.00251234      -0.00489881
Ti       0.00003019       2.52210575      20.28716280      -0.00000584       0.00265723      -0.00347651
Ti       2.93602258       2.52666283      20.28898284       0.00000271       0.00309684      -0.00411522
Ti       0.00003059       6.59139782      20.79562885      -0.00001739       0.00326973      -0.00248904
Ti       2.93602513       6.59377780      20.80136614       0.00000113       0.00269141      -0.00399050
Ti       1.46759663       4.43982080      21.95689092      -0.00002803       0.00156415      -0.00345105
Ti       4.40447571       4.43982089      21.95688574       0.00000926       0.00147435      -0.00342479
Ti       1.46680160       1.49421602      22.55679312       0.00007271       0.00191015      -0.00533076
Ti       4.40523374       1.49421510      22.55678455      -0.00000030       0.00191157      -0.00531808
Ti       2.93603561       6.23140568      23.77983706      -0.00004988      -0.00251623      -0.00219681
Ti       0.00002944       6.23178136      23.77777387       0.00000230      -0.00207089      -0.00092666
Ti       2.93601938       3.41207768      24.19346795       0.00005376       0.00135989      -0.00277455
Ti       0.00003316       3.41003773      24.19423915      -0.00002232       0.00112773      -0.00301602
Ti       4.40115664       1.32058872      25.37168653      -0.00013616      -0.00175890       0.00196881
Ti       1.47091154       1.32058458      25.37169741       0.00014530      -0.00176409       0.00197438
Ti       4.40447566       5.02925207      25.98744744       0.00029874      -0.00015190      -0.00381525
Ti       1.46756647       5.02924875      25.98744137      -0.00025317      -0.00010733      -0.00377090
