64
Lattice="5.871999 0.0 0.0 0.0 6.890708 0.0 0.0 0.0 27.401158" Properties=species:S:1:pos:R:3:forces:R:3 job_name=T1m-Cu-Cu-37-d-1.42 GB_type=T1m element=Cu system=Cu-37-d-1.42 distance=1.42 energy=-491.00075572 stress_kbar_3x3="_JSON [[-12.29093499, 0.00058914, 0.00074497], [0.00058911, -17.03141598, -0.1937166], [0.00074498, -0.19371658, -21.71627894]]" pbc="T T T"
Ti       2.93311337       0.10561992      27.39607031       0.00067024       0.00017397      -0.00528765
Ti       2.93635387       2.93926360      27.40028838       0.00003035       0.00165605      -0.00191199
Ti       0.00295626       0.10562578      27.39607220      -0.00086438       0.00014034      -0.00548776
Ti       5.87170417       2.93930336      27.40034142      -0.00003476       0.00137538      -0.00204916
Ti       4.40397645       5.03294488       1.41227676       0.00017845       0.00063327       0.00015170
Ti       1.46803347       5.02967804       1.41336035       0.00002947       0.00293563       0.00278465
Ti       4.40405693       1.31697628       2.03345877      -0.00006218      -0.00169966      -0.00067669
Ti       1.46797147       1.31917918       2.02870906       0.00012556      -0.00013080       0.00144013
Ti       2.94048232       3.41218581       3.21147228      -0.00161202       0.00037203       0.00513408
Ti       5.86756291       3.41220804       3.21147852       0.00150474       0.00049747       0.00521334
Ti       2.93890526       6.23039010       3.62559094      -0.00218361      -0.00201099       0.00502122
Ti       5.86914342       6.23039803       3.62561403       0.00222594      -0.00201979       0.00500960
Ti       1.46802984       1.49438946       4.84249023      -0.00020392       0.00169693       0.00902331
Ti       4.40402427       1.49897923       4.85278437      -0.00007752       0.00123331       0.00305661
Ti       1.46802983       4.43908311       5.43951548       0.00005559       0.00476035       0.01000845
Ti       4.40404609       4.43760014       5.45907500      -0.00021689      -0.00095864       0.00893902
Ti       2.93136525       6.59600972       6.60513184       0.00235706       0.00766254       0.01041999
Ti       0.00465147       6.59602476       6.60513107      -0.00228197       0.00763749       0.01038962
Ti       2.93387475       2.52730006       7.11865155       0.00105875      -0.00059292       0.01127983
Ti       0.00214983       2.52730102       7.11868354      -0.00104158      -0.00064661       0.01112088
Ti       4.40401015       4.68635268       8.30536354       0.00002398      -0.00034567       0.01656804
Ti       1.46798858       4.69654748       8.27396810       0.00004470       0.00675505       0.00444393
Ti       4.40400726       0.73456413       8.86221531      -0.00006502       0.00742862       0.00405937
Ti       1.46797628       0.72005605       8.89715152       0.00010344      -0.00070966       0.00471526
Ti       0.02602859       2.87438876      10.08965006      -0.00091309      -0.00019873       0.00193623
Ti       2.90993955       2.87436371      10.08966067       0.00098490      -0.00004949       0.00183686
Ti       0.04597138       5.72004860      10.53045392      -0.00296047       0.01022807       0.00562318
Ti       2.89003252       5.72004991      10.53041368       0.00301236       0.01014012       0.00568903
Ti       1.46798133       0.97616794      11.77325908       0.00006277       0.01400703       0.00535621
Ti       4.40399855       0.89584731      11.70960347      -0.00000725      -0.00289434       0.00280771
Ti       1.46796918       4.02674802      12.34183983       0.00012760      -0.00247809      -0.00983178
Ti       4.40402116       4.06040918      12.23836784      -0.00019981      -0.01315131      -0.00805875
Ti       2.98546213       2.16151544      13.75403521       0.00905783      -0.01316229       0.01065417
Ti       5.82253332       2.16150303      13.75404402      -0.00903764      -0.01311720       0.01069936
Ti       2.95638108       6.14880592      13.69573767      -0.00190764       0.00408126      -0.00648146
Ti       5.85157222       6.14878355      13.69571756       0.00195050       0.00420566      -0.00655066
Ti       4.40400685       4.07481874      15.05048538      -0.00003453       0.00204688      -0.00158883
Cu       1.46800516       4.06966316      15.14340347       0.00008879      -0.00852872      -0.00263820
Ti       4.40398675       0.84388097      15.74535039      -0.00003509       0.00171898      -0.00057541
Ti       1.46799996       0.91267323      15.70902659       0.00008928      -0.01808289      -0.00315517
Ti       2.88199145       5.66900449      16.87301372       0.00879018       0.00655627       0.00597298
Ti       0.05405293       5.66900100      16.87298711      -0.00876130       0.00657110       0.00612511
Ti       2.92825902       2.88261688      17.29447797       0.00345792      -0.00849921       0.00341068
Ti       0.00776238       2.88262962      17.29445922      -0.00335196      -0.00862679       0.00356126
Ti       4.40403456       0.73195745      18.51553120      -0.00000603      -0.00409531      -0.01152263
Ti       1.46801991       0.73347478      18.47321052       0.00003009      -0.01323255       0.00020664
Ti       4.40403974       4.68822163      19.09676904      -0.00000928      -0.00102896      -0.00862804
Ti       1.46802717       4.69449010      19.14460989       0.00000847      -0.00389195      -0.00872255
Ti       0.00152439       2.51892242      20.26422751       0.00192919      -0.00684271      -0.01451623
Ti       2.93453143       2.51893345      20.26423751      -0.00189318      -0.00684543      -0.01448937
Ti       0.00332090       6.60761558      20.78695003       0.00215825       0.00700951      -0.01295036
Ti       2.93274929       6.60762559      20.78693494      -0.00223583       0.00688292      -0.01287360
Ti       1.46801752       4.44106073      21.95413121       0.00003541       0.00361448      -0.00547833
Ti       4.40402634       4.43977152      21.92883291      -0.00000045      -0.00058690      -0.01002164
Ti       1.46803933       1.50112179      22.55345724      -0.00010276       0.00206707      -0.00367504
Ti       4.40402570       1.50511493      22.54450698       0.00012192      -0.00294903      -0.00601937
Ti       2.93786868       6.23343569      23.77332342       0.00367762      -0.00070237      -0.00110575
Ti       5.87020828       6.23345325      23.77332160      -0.00386276      -0.00072820      -0.00106387
Ti       2.93941566       3.42080560      24.17866561       0.00321355       0.00225532      -0.00457912
Ti       5.86863981       3.42080013      24.17867147      -0.00329815       0.00222797      -0.00458501
Ti       4.40402162       1.32228242      25.36400837       0.00000536       0.00714085      -0.00836961
Ti       1.46800786       1.32356616      25.36676198       0.00008736       0.00293899      -0.00314896
Ti       4.40400452       5.03211336      25.98526313       0.00007838       0.00067505      -0.00284098
Ti       1.46806379       5.02992574      25.98507604      -0.00011491      -0.00051873      -0.00377449
