64
Lattice="5.871999 0.0 0.0 0.0 6.890708 0.0 0.0 0.0 27.401158" Properties=species:S:1:pos:R:3:forces:R:3 job_name=T1m-Cu-Cu-47-d-5.43 GB_type=T1m element=Cu system=Cu-47-d-5.43 distance=5.43 energy=-490.97328902 stress_kbar_3x3="_JSON [[-14.15493235, 0.00081681, 4.28e-06], [0.00081682, -16.33197077, 0.71710276], [4.32e-06, 0.71710274, -21.92686502]]" pbc="T T T"
Ti       2.94879211       0.10226202      27.39104238       0.00376496      -0.00176811      -0.00527805
Ti       2.93520733       2.93932954      27.38066285       0.00111528      -0.00760477      -0.00722867
Ti       5.85926608       0.10224491      27.39101644      -0.00371980      -0.00165647      -0.00522962
Ti       0.00085274       2.93934635      27.38068161      -0.00104418      -0.00767977      -0.00724881
Ti       4.40402978       5.02423367       1.39062587       0.00001976      -0.00166487       0.00051442
Ti       1.46804143       5.02883542       1.40869850      -0.00009179      -0.00131721      -0.00307909
Ti       4.40403088       1.32312088       2.01962410       0.00003442      -0.00289849      -0.01030717
Ti       1.46800865       1.32242098       2.02036983       0.00002457      -0.00285223      -0.01055359
Ti       2.93618590       3.41261351       3.20395361      -0.00124489       0.00276670      -0.00685511
Ti       5.87186871       3.41261536       3.20396262       0.00122350       0.00280130      -0.00690547
Ti       2.93721732       6.22896376       3.61091670      -0.00055594      -0.00227067      -0.00896162
Ti       5.87082361       6.22896551       3.61092994       0.00036338      -0.00224087      -0.00898346
Ti       1.46802593       1.49158287       4.83408222       0.00001193      -0.00241763      -0.00391031
Ti       4.40401782       1.49066570       4.83163236       0.00001766      -0.00219193       0.00197441
Ti       1.46802949       4.44221557       5.43838840       0.00000528       0.00183091      -0.00060561
Ti       4.40403999       4.44099640       5.43833673      -0.00003557       0.00240362       0.00211871
Ti       2.93738903       6.59604764       6.60051942       0.00017734       0.00323488       0.00016699
Ti       5.87064460       6.59604941       6.60054606      -0.00012835       0.00323352       0.00012430
Ti       2.93680926       2.52023315       7.10319222       0.00112821      -0.00228837       0.00141918
Ti       5.87122934       2.52023651       7.10319564      -0.00121920      -0.00220428       0.00146095
Ti       4.40400082       4.67713154       8.26439037       0.00002643       0.00146643       0.00252356
Ti       1.46800641       4.67401330       8.26532299      -0.00000489       0.00297918       0.00356527
Ti       4.40400401       0.73318114       8.87532411      -0.00003128       0.00005928       0.00414863
Ti       1.46803373       0.73259151       8.86752974      -0.00013458      -0.00232400       0.00424594
Ti       5.87104420       2.88824970      10.09358870      -0.00118847       0.00151077       0.00461119
Ti       2.93695502       2.88825690      10.09357891       0.00121924       0.00148087       0.00458017
Ti       5.86976574       5.70161394      10.50385385      -0.00159259       0.00162942       0.01121945
Ti       2.93824103       5.70159916      10.50386481       0.00159015       0.00170128       0.01124107
Ti       1.46800520       0.90509546      11.67770169      -0.00004496       0.00662815       0.01313260
Ti       4.40397260       0.91082316      11.69051088       0.00009113       0.00618133       0.01541351
Ti       1.46800396       4.07800018      12.29860032      -0.00006347      -0.00930790       0.01061695
Ti       4.40398880       4.08269137      12.32227327       0.00017810      -0.00648936       0.00262851
Ti       2.93383694       2.11181631      13.72838167      -0.00129616      -0.00609466       0.01551938
Ti       0.00215856       2.11178736      13.72837190       0.00130004      -0.00595932       0.01550961
Ti       2.93702702       6.18228831      13.72055153       0.00074764       0.00935433       0.00195796
Ti       5.87093428       6.18227743      13.72055443      -0.00072114       0.00934058       0.00194374
Ti       4.40397210       4.07903539      15.15058711       0.00010387       0.00030909       0.00349162
Ti       1.46801952       4.08417785      15.10982834      -0.00006926      -0.00032655      -0.00301219
Ti       4.40398564       0.86919491      15.74358578       0.00006279      -0.00129682      -0.00818327
Ti       1.46799822       0.85545041      15.78746345      -0.00002427      -0.00036891      -0.01912769
Ti       2.91140355       5.67170864      16.97221296      -0.00640038      -0.00604954       0.00181241
Ti       0.02459713       5.67173679      16.97223354       0.00638966      -0.00623774       0.00183526
Ti       2.89694437       2.90081333      17.33498901      -0.00516441       0.00315987      -0.00501813
Ti       0.03905998       2.90082031      17.33497706       0.00516151       0.00316972      -0.00506405
Ti       4.40400693       0.78446844      18.52709820       0.00003744      -0.00070564      -0.00040916
Ti       1.46802336       0.67991008      18.55039539      -0.00001047      -0.00152115       0.01538314
Ti       4.40400836       4.75790657      19.21275836       0.00005392       0.00279975       0.01211296
Cu       1.46801692       4.71656921      19.13516594      -0.00001617      -0.00020223       0.00218666
Ti       0.02676290       2.56948179      20.26694226       0.01157966       0.00598896       0.00396615
Ti       2.90929031       2.56947396      20.26695477      -0.01164603       0.00594103       0.00410153
Ti       5.83579881       6.57321288      20.77933698       0.00681242      -0.00476681      -0.00376837
Ti       2.97222619       6.57319026      20.77933619      -0.00686218      -0.00478792      -0.00370856
Ti       1.46801533       4.41936493      21.90680165       0.00003604       0.00397044      -0.00450193
Ti       4.40403382       4.42709646      22.02646248       0.00002437       0.00421851      -0.00590566
Ti       1.46801753       1.53334756      22.46606329       0.00007085       0.00044600       0.00262116
Ti       4.40401894       1.47265134      22.50796581       0.00002874       0.00189509       0.00418512
Ti       2.90920970       6.24499543      23.75688866       0.00038194       0.00593612       0.00281220
Ti       0.02686679       6.24499889      23.75689776      -0.00048782       0.00585456       0.00288563
Ti       2.89794157       3.39769588      24.17529723       0.00011810      -0.00228451      -0.00146703
Ti       0.03812083       3.39772554      24.17531218      -0.00013156      -0.00252735      -0.00145510
Ti       4.40402050       1.32308403      25.35537388       0.00009189      -0.00286007      -0.01204167
Ti       1.46802579       1.29777022      25.34746201      -0.00000330      -0.00164691      -0.00600078
Ti       4.40402707       5.02368775      25.94509500       0.00000332       0.00291979      -0.01187872
Ti       1.46805302       5.04162783      25.97911004      -0.00006244       0.00160158      -0.01134143
