64
Lattice="5.871999 0.0 0.0 0.0 6.890708 0.0 0.0 0.0 27.401158" Properties=species:S:1:pos:R:3:forces:R:3 job_name=T1m-Al-Al-40-d-3.20 GB_type=T1m element=Al system=Al-40-d-3.20 distance=3.2 energy=-492.05899074 stress_kbar_3x3="_JSON [[-10.76511961, 0.00029819, 0.00025728], [0.00029816, -10.27273415, 0.29660694], [0.00025728, 0.29660698, -19.28258293]]" pbc="T T T"
Ti       2.93603808       0.10440181       0.00130069      -0.00004647      -0.00199083      -0.00589449
Ti       2.93601677       2.94136169      27.39944097      -0.00002027      -0.00476979      -0.00500279
Ti       0.00003589       0.10150210       0.00363926      -0.00002219      -0.00056325      -0.00275606
Ti       0.00001140       2.94231100      -0.00045094       0.00005469      -0.00659521      -0.00883949
Ti       4.40076382       5.02851243       1.41102273       0.00041380      -0.00272399      -0.00118990
Ti       1.47130272       5.02849918       1.41101584      -0.00041078      -0.00268977      -0.00115225
Ti       4.40411560       1.32375637       2.02754183      -0.00025047      -0.00112572      -0.00409573
Ti       1.46795136       1.32377348       2.02757818       0.00026484      -0.00121398      -0.00441270
Ti       2.93604605       3.41323768       3.20610998      -0.00008620      -0.00174645       0.00096738
Ti       0.00002836       3.41227656       3.20699599       0.00001886      -0.00102347       0.00213697
Ti       2.93604359       6.23119644       3.61939920      -0.00005670      -0.00257642      -0.01004741
Ti       0.00002041       6.23153410       3.61793047       0.00009029      -0.00223981      -0.00923860
Ti       1.46795834       1.49239161       4.83630102      -0.00006037       0.00158460       0.00135633
Ti       4.40410387       1.49240506       4.83631218      -0.00007424       0.00155403       0.00115347
Ti       1.46921411       4.44083135       5.43916644      -0.00022119       0.00257085       0.00601049
Ti       4.40285268       4.44084124       5.43917713       0.00017716       0.00247513       0.00594569
Ti       2.93600942       6.59493160       6.59547576       0.00000896       0.00529425       0.01144948
Ti       0.00000848       6.59294826       6.59722452       0.00006607       0.00379408       0.01326716
Ti       2.93601417       2.52229852       7.10367665       0.00002154      -0.00026835       0.01218556
Ti       0.00002016       2.52122217       7.09983508       0.00002326       0.00257122       0.01278178
Ti       4.40317182       4.67454938       8.26527200       0.00204773      -0.00090943       0.00976086
Ti       1.46883526       4.67455157       8.26527042      -0.00207188      -0.00093492       0.00972685
Ti       4.40115190       0.73514795       8.86983721      -0.00119938       0.00913670       0.00328289
Ti       1.47086489       0.73514537       8.86984612       0.00116527       0.00917073       0.00314737
Ti      -0.00001476       2.88154626      10.08474035       0.00004355       0.00377063       0.01013421
Ti       2.93599451       2.88921480      10.09109229      -0.00003970       0.00447811       0.01016008
Ti      -0.00001110       5.70840511      10.49894954       0.00004553       0.00602047       0.00373843
Ti       2.93599908       5.70862161      10.51526703      -0.00002728       0.00331315      -0.00359132
Ti       1.47772134       0.90776021      11.67602911       0.00386952       0.00188990       0.00759898
Ti       4.39424338       0.90775268      11.67605447      -0.00386517       0.00192435       0.00740512
Ti       1.46124179       4.10455408      12.30594803      -0.00463589      -0.00040957      -0.00304874
Ti       4.41073600       4.10455659      12.30592924       0.00476061      -0.00044864      -0.00277188
Ti       2.93598546       2.13736113      13.73361373       0.00005928      -0.00379086       0.00214345
Ti      -0.00000461       2.13143878      13.71158476       0.00001079      -0.01236228      -0.00495990
Ti       2.93597271       6.19005862      13.73847780       0.00001013       0.00061364      -0.00222105
Ti       5.87198352       6.18750632      13.66928355       0.00000516       0.01116738       0.01393012
Ti       4.42995548       4.06385350      15.14886345      -0.00558235      -0.00061781      -0.00496135
Ti       1.44204341       4.06385121      15.14886327       0.00547690      -0.00061857      -0.00492095
Ti       4.38435591       0.90274720      15.72257845      -0.00257775      -0.00290594       0.00182784
Ti       1.48761233       0.90275021      15.72258113       0.00253563      -0.00294343       0.00194524
Al       2.93598039       5.71247895      16.86808234       0.00011721      -0.00402615       0.00328318
Ti      -0.00001104       5.65515626      16.90756033       0.00006772       0.00715232      -0.00248282
Ti       2.93599350       2.92466042      17.32653471       0.00001482      -0.00606418       0.00207009
Ti       5.87198946       2.81905971      17.33245962       0.00003372      -0.00449677      -0.00049581
Ti       4.36779654       0.69193793      18.52614347       0.01068429       0.00345825      -0.00065211
Ti       1.50423567       0.69193664      18.52616285      -0.01075641       0.00349184      -0.00080799
Ti       4.38099458       4.68682234      19.10760670       0.00708858      -0.01030219       0.00322726
Ti       1.49103372       4.68680005      19.10762446      -0.00714464      -0.01019879       0.00316615
Ti       0.00003212       2.52455508      20.29951136      -0.00000796      -0.00574220      -0.01618563
Ti       2.93604518       2.54369552      20.26146031      -0.00001801      -0.01338907      -0.00785176
Ti       0.00001981       6.58289087      20.78652734       0.00003330       0.01006743      -0.01175271
Ti       2.93603246       6.61945918      20.83922953      -0.00002573      -0.00712253      -0.00925107
Ti       1.46724608       4.43753022      21.94544170       0.00109963      -0.00327824      -0.00070124
Ti       4.40483600       4.43752294      21.94543645      -0.00108132      -0.00327414      -0.00069423
Ti       1.47486960       1.50157974      22.55516868      -0.00337183       0.00418987      -0.00504173
Ti       4.39718789       1.50156890      22.55517561       0.00332242       0.00434481      -0.00500213
Ti       2.93603911       6.23545290      23.78200900      -0.00000732       0.00463202       0.00030353
Ti       0.00004392       6.23002531      23.76870265      -0.00003039       0.00577563       0.00501358
Ti       2.93604127       3.41455149      24.19312736      -0.00000470      -0.00335234      -0.00458930
Ti       0.00003839       3.40856379      24.19079675      -0.00001385       0.00419545      -0.00046132
Ti       4.40523028       1.32077947      25.37192614       0.00282318      -0.00239012      -0.00281807
Ti       1.46684936       1.32078984      25.37191161      -0.00279166      -0.00244522      -0.00276249
Ti       4.40412974       5.03307954      25.98426858       0.00091573       0.00652733      -0.00925376
Ti       1.46791287       5.03309035      25.98425549      -0.00086803       0.00638626      -0.00921076
