64
Lattice="5.871999 0.0 0.0 0.0 6.890708 0.0 0.0 0.0 27.401158" Properties=species:S:1:pos:R:3:forces:R:3 job_name=T1m-Al-Al-43-d-3.62 GB_type=T1m element=Al system=Al-43-d-3.62 distance=3.62 energy=-491.96704057 stress_kbar_3x3="_JSON [[-9.98256556, -0.00076061, -0.00066421], [-0.00076066, -10.34876147, 0.19314723], [-0.0006642, 0.19314725, -20.32776514]]" pbc="T T T"
Ti       2.93603473       0.09964320      27.39604965       0.00002140      -0.00246799       0.01369709
Ti       2.93602269       2.93794959      27.39628189      -0.00000556       0.00164425       0.00988382
Ti       0.00002730       0.10145132      27.39781484      -0.00000508      -0.00177740       0.01387259
Ti       0.00001913       2.93902232      27.39910950      -0.00000271       0.00139621       0.00853911
Ti       4.40528305       5.02991956       1.40764776       0.00018068      -0.00069614      -0.00122241
Ti       1.46676179       5.02993437       1.40763596      -0.00015479      -0.00065503      -0.00123488
Ti       4.40200203       1.32029858       2.02513210       0.00021448      -0.00116170      -0.00890984
Ti       1.47006610       1.32029316       2.02517202      -0.00022339      -0.00118450      -0.00895721
Ti       2.93602958       3.41248373       3.20688657       0.00001994       0.00124895      -0.01290784
Ti       0.00002826       3.41310750       3.20747665      -0.00002490       0.00102867      -0.01243752
Ti       2.93602564       6.23007606       3.61450989      -0.00001783      -0.00033607      -0.01014422
Ti       0.00001581       6.23025267       3.61567345       0.00002277      -0.00009006      -0.01031136
Ti       1.46788393       1.49236071       4.83694700      -0.00021716       0.00088349      -0.00542319
Ti       4.40415560       1.49234081       4.83695859       0.00024867       0.00090083      -0.00539511
Ti       1.46675965       4.44000425       5.44065826       0.00009765      -0.00027776      -0.00360420
Ti       4.40532726       4.44000365       5.44063990      -0.00009453      -0.00028784      -0.00359431
Ti       2.93601495       6.59495574       6.59939253      -0.00002804       0.00086052       0.00140158
Ti       0.00002754       6.59668285       6.59954051      -0.00000944       0.00075902       0.00118503
Ti       2.93599804       2.52076304       7.10079963       0.00004175      -0.00151807       0.00291517
Ti       0.00003126       2.52054010       7.10932151       0.00003219      -0.00155580       0.00178651
Ti       4.40291387       4.67719454       8.27226105      -0.00037103       0.00206659       0.00517926
Ti       1.46907100       4.67717312       8.27225310       0.00034541       0.00212350       0.00518298
Ti       4.40783051       0.72684802       8.87411885      -0.00084244      -0.00312898       0.00630500
Ti       1.46415841       0.72684810       8.87412387       0.00085458      -0.00317869       0.00631512
Ti      -0.00002907       2.88116734      10.09486067       0.00003997      -0.00041359       0.01102203
Ti       2.93602220       2.87580312      10.07208311      -0.00003614       0.00012346       0.01036645
Ti       5.87199697       5.70437436      10.51831266      -0.00000185       0.00065042       0.01081687
Ti       2.93596847       5.69974248      10.50234521      -0.00000933       0.00134206       0.00971857
Ti       1.46332791       0.90358305      11.69338117      -0.00002454      -0.00236821      -0.00216733
Ti       4.40864978       0.90361135      11.69342972       0.00006010      -0.00238793      -0.00220415
Ti       1.49464023       4.07123869      12.30673895      -0.00024763       0.00483117      -0.00381268
Ti       4.37735420       4.07121072      12.30675900       0.00025614       0.00482175      -0.00383020
Ti       2.93600461       2.10140476      13.73265470      -0.00002513       0.00325235      -0.01200710
Ti      -0.00001025       2.11693126      13.70045976       0.00002487       0.00494560      -0.01173650
Ti       2.93599799       6.15375168      13.68147595      -0.00004629      -0.00394146      -0.00626823
Ti       0.00001526       6.14180407      13.76184500       0.00003441      -0.00520019      -0.00820046
Ti       4.37114016       4.10627536      15.14880967       0.00168302       0.00139769      -0.00676085
Ti       1.50085885       4.10626881      15.14884027      -0.00168362       0.00144397      -0.00679341
Ti       4.46115263       0.92842100      15.74732654      -0.00222484      -0.00290368       0.00012606
Ti       1.41086507       0.92842634      15.74736510       0.00229711      -0.00295138       0.00007211
Ti       2.93599547       5.78453205      16.86784738       0.00000600      -0.00172842       0.00229772
Ti       0.00002136       5.66273193      16.90386117      -0.00001893       0.00307634       0.00522216
Ti       2.93600300       2.93688342      17.35825441      -0.00002257      -0.00034445       0.01026804
Al       0.00004523       2.88546063      17.31997492      -0.00029543       0.00252733      -0.00919105
Ti       4.42661235       0.75809312      18.53207075       0.00207125       0.00159056       0.00896932
Ti       1.44538910       0.75812638      18.53202807      -0.00198872       0.00155679       0.00897184
Ti       4.38760662       4.66954242      19.10264744       0.00461306       0.00117980       0.00643077
Ti       1.48440727       4.66953693      19.10264859      -0.00461158       0.00118152       0.00638507
Ti       0.00004050       2.51963903      20.27342085       0.00001758       0.00030593      -0.00264420
Ti       2.93600999       2.52084719      20.33645711      -0.00001366      -0.00123617      -0.00094513
Ti       0.00003387       6.59441748      20.74945985      -0.00000826      -0.00074681      -0.00266188
Ti       2.93604100       6.58297655      20.77637684      -0.00001623      -0.00015786      -0.00521298
Ti       1.45786974       4.43786326      21.94301257      -0.00026776      -0.00025159      -0.00651659
Ti       4.41412753       4.43786469      21.94303963       0.00030292      -0.00019388      -0.00650546
Ti       1.45763001       1.48026080      22.54485793      -0.00022375       0.00023412      -0.01004412
Ti       4.41443106       1.48025985      22.54485704       0.00025620       0.00017944      -0.01011304
Ti       2.93602343       6.22513534      23.78407452       0.00001326      -0.00173229      -0.00413175
Ti       0.00005205       6.22794806      23.77051975      -0.00003467      -0.00227096      -0.00633025
Ti       2.93601194       3.40580682      24.17092730      -0.00001845       0.00240605      -0.00324200
Ti       0.00005465       3.40788564      24.18230483       0.00002711       0.00319300      -0.00294988
Ti       4.40254275       1.31997172      25.36368382      -0.00068567      -0.00433135       0.01169219
Ti       1.46950733       1.31995466      25.36372241       0.00069554      -0.00430634       0.01165772
Ti       4.40649682       5.02784230      25.98011164      -0.00072666       0.00133938       0.01406781
Ti       1.46556530       5.02785100      25.98012059       0.00075053       0.00129182       0.01406330
