64
Lattice="5.871999 0.0 0.0 0.0 6.890708 0.0 0.0 0.0 27.401158" Properties=species:S:1:pos:R:3:forces:R:3 job_name=T1m-Zr-Zr-38-d-2.03 GB_type=T1m element=Zr system=Zr-38-d-2.03 distance=2.03 energy=-495.68473814 stress_kbar_3x3="_JSON [[-3.07270912, -0.00169397, 6.618e-05], [-0.00169396, -4.41787908, -0.23468155], [6.615e-05, -0.23468155, -10.21870465]]" pbc="T T T"
Ti       2.94183236       0.10088185       0.00594203      -0.00451868      -0.00343514       0.00519149
Ti       2.93771630       2.94022249       0.00703205      -0.00454228      -0.00033453       0.00581317
Ti       5.86621512       0.10087155       0.00594961       0.00458931      -0.00342995       0.00509780
Ti       5.87031943       2.94022908       0.00702563       0.00450674      -0.00032219       0.00589328
Ti       4.40400303       5.02879492       1.41559598       0.00007134      -0.00659255       0.00195940
Ti       1.46801483       5.02946715       1.41693127      -0.00003803      -0.00522179       0.00100686
Ti       4.40400902       1.32228404       2.02645080      -0.00008015      -0.00038427       0.00482628
Ti       1.46801266       1.32049045       2.02707412      -0.00003220      -0.00164744       0.00339667
Ti       2.93446583       3.41111477       3.20395046      -0.00601916      -0.00378168      -0.00321998
Ti       0.00153682       3.41112030       3.20395404       0.00615006      -0.00376332      -0.00321378
Ti       2.93562402       6.23135804       3.61293085      -0.00323746      -0.00061169      -0.00007800
Ti       0.00040177       6.23136834       3.61292794       0.00321694      -0.00061667      -0.00003218
Ti       1.46802012       1.49023746       4.83420907      -0.00005257       0.00136955      -0.00748383
Ti       4.40400938       1.49247730       4.82692493      -0.00002785      -0.00474364       0.00328971
Ti       1.46800907       4.44053560       5.43132375       0.00000065      -0.00073701      -0.00476102
Ti       4.40400748       4.44059869       5.42340805      -0.00002674       0.00327679       0.00123578
Ti       2.94257507       6.59316379       6.58613881      -0.00156508      -0.00268008      -0.00762037
Ti       5.86542896       6.59315064       6.58615361       0.00163252      -0.00266100      -0.00773438
Ti       2.94000503       2.52124699       7.08483823      -0.00131790       0.00345069      -0.00720491
Ti       5.86800368       2.52125233       7.08483880       0.00128312       0.00348817      -0.00724333
Ti       4.40399066       4.67745774       8.23844419       0.00004336      -0.00261844      -0.01405806
Ti       1.46799652       4.66537999       8.24955414      -0.00001593       0.00310999      -0.01151477
Ti       4.40399973       0.73260902       8.86190788      -0.00002817       0.00258057      -0.01263073
Ti       1.46799280       0.74076403       8.81488721       0.00004781       0.00024651      -0.00354253
Ti       5.86199233       2.88372823      10.06234870       0.00265016      -0.00140294      -0.00867842
Ti       2.94597714       2.88371917      10.06232312      -0.00252315      -0.00134866      -0.00861575
Ti       5.84380559       5.70484924      10.45733168       0.00485905       0.00327678       0.00260222
Ti       2.96418347       5.70486969      10.45734963      -0.00476002       0.00329970       0.00261859
Ti       1.46800084       0.87913920      11.59397242       0.00000154       0.01112266       0.00382056
Ti       4.40399328       0.91202123      11.67271137       0.00003811       0.00843246      -0.00203247
Ti       1.46804197       4.10668491      12.22760584      -0.00012266      -0.00390248       0.00164459
Ti       4.40401270       4.09963988      12.28311962       0.00006221       0.00128196      -0.00566687
Ti       2.85162345       2.14711048      13.62459968       0.01145996       0.00395093      -0.00756680
Ti       0.08444884       2.14708492      13.62460826      -0.01147500       0.00402512      -0.00773236
Ti       2.89385072       6.16061481      13.62371306       0.00123981       0.00214757      -0.00833808
Ti       0.04214131       6.16060208      13.62367768      -0.00120581       0.00214944      -0.00821653
Ti       4.40401304       4.12055763      15.13890185       0.00001524       0.01408482      -0.00456443
Ti       1.46794676       4.09097682      15.08030064       0.00012847       0.00796768       0.01535385
Zr       4.40404869       0.88144515      15.68566533      -0.00012355      -0.00479360      -0.01274730
Ti       1.46812843       0.88761565      15.70564065      -0.00015513      -0.00773222       0.00260432
Ti       2.88758911       5.66808526      16.98133242      -0.00017003      -0.00521330       0.00135015
Ti       0.04848630       5.66811448      16.98131405      -0.00000318      -0.00552841       0.00147382
Ti       2.91270556       2.91493368      17.35348610       0.00735408       0.00677411       0.00696401
Ti       0.02335866       2.91491870      17.35349443      -0.00736519       0.00695332       0.00698790
Ti       4.40399489       0.73636201      18.60828694       0.00000902       0.00509395      -0.00093980
Ti       1.46800587       0.73165063      18.55063833       0.00002691       0.00052365      -0.00318714
Ti       4.40405528       4.66585279      19.17575195      -0.00000038       0.00051434       0.00490128
Ti       1.46801979       4.67786934      19.20939931      -0.00009291      -0.00187539       0.00117888
Ti       0.00407398       2.51345073      20.33561678       0.00140200       0.00592804       0.00313764
Ti       2.93193098       2.51346502      20.33558526      -0.00132540       0.00586874       0.00334466
Ti       0.00568621       6.60014310      20.82936817      -0.00015451      -0.00909613       0.00544573
Ti       2.93033448       6.60014556      20.82935223       0.00028752      -0.00904924       0.00549759
Ti       1.46803214       4.44300687      22.00282727      -0.00005841      -0.00466920       0.00119840
Ti       4.40401583       4.44233433      21.98342225      -0.00002163      -0.00599746       0.00659571
Ti       1.46801557       1.48949301      22.60054859      -0.00003956       0.00390200       0.00569010
Ti       4.40399833       1.49267923      22.58391725       0.00007577      -0.00600558       0.00726623
Ti       2.93807076       6.23085047      23.80666553      -0.00087990      -0.00262768       0.00556763
Ti       5.86997429       6.23086239      23.80667093       0.00091171      -0.00268392       0.00560354
Ti       2.93834762       3.41217573      24.21453990      -0.00371219      -0.00012456       0.00462977
Ti       5.86972871       3.41216879      24.21452298       0.00366376       0.00007040       0.00484526
Ti       4.40404169       1.32325702      25.38383312      -0.00008395       0.00368579       0.00613283
Ti       1.46804402       1.32433640      25.39580114      -0.00001497      -0.00132515       0.00445098
Ti       4.40401179       5.02701750      26.00214128       0.00008590      -0.00326606       0.00621929
Ti       1.46803438       5.02468392      26.00396086      -0.00002330       0.00164761       0.00378787
