64
Lattice="5.871999 0.0 0.0 0.0 6.890708 0.0 0.0 0.0 27.401158" Properties=species:S:1:pos:R:3:forces:R:3 job_name=T1m-Zn-Zn-38-d-2.03 GB_type=T1m element=Zn system=Zn-38-d-2.03 distance=2.03 energy=-488.80434467 stress_kbar_3x3="_JSON [[-11.96459619, 0.00195022, 0.00104336], [0.00195021, -15.27928224, -1.00932177], [0.00104338, -1.00932178, -17.31930109]]" pbc="T T T"
Ti       2.93385245       0.10390708      27.39897140      -0.00274582      -0.00576839      -0.00254910
Ti       2.93537910       2.94200728      27.39814500       0.00025468      -0.00307188      -0.00380365
Ti       0.00216941       0.10393524      27.39900336       0.00271365      -0.00604452      -0.00255438
Ti       0.00070789       2.94199728      27.39816449      -0.00035391      -0.00297893      -0.00371727
Ti       4.40402922       5.02966423       1.41117192      -0.00000761      -0.00042594      -0.00373047
Ti       1.46797341       5.02961084       1.40883512       0.00017172      -0.00080608      -0.00508231
Ti       4.40403869       1.32176102       2.02452311      -0.00005672       0.00231207      -0.00274023
Ti       1.46799855       1.31982773       2.02552537       0.00005583       0.00223084      -0.00399844
Ti       2.93516904       3.41246946       3.20498545       0.00060067      -0.00085503       0.00055518
Ti       0.00085335       3.41250185       3.20501622      -0.00058009      -0.00094256       0.00058662
Ti       2.93545342       6.22987035       3.61644224       0.00021491       0.00058190      -0.00258556
Ti       0.00061277       6.22983394       3.61643070      -0.00026756       0.00082457      -0.00246294
Ti       1.46802120       1.49567706       4.83430829      -0.00008367       0.00469762       0.00015842
Ti       4.40399304       1.49347939       4.83459734       0.00010837       0.00398582      -0.00384125
Ti       1.46803905       4.44139912       5.43802494       0.00003578       0.00375442      -0.00017897
Ti       4.40401950       4.44200871       5.43620367      -0.00006700       0.00278993      -0.00230798
Ti       2.93447856       6.60086191       6.59905755      -0.00121639       0.00548679       0.00158217
Ti       0.00154099       6.60085887       6.59908477       0.00122485       0.00552206       0.00161558
Ti       2.93502144       2.52193046       7.09876988      -0.00072276       0.00484341       0.00190877
Ti       0.00101322       2.52195805       7.09877664       0.00071645       0.00475632       0.00193656
Ti       4.40400367       4.68894170       8.26003187       0.00003386       0.00545825       0.00292275
Ti       1.46802638       4.69219718       8.26587705      -0.00005799       0.00558682       0.00130568
Ti       4.40399034       0.73028361       8.85602891       0.00009035       0.00600160       0.00175262
Ti       1.46802319       0.72894667       8.87467320      -0.00003643       0.00437343       0.00076949
Ti       0.00109869       2.90559797      10.07530688      -0.00296817       0.00239807       0.00194906
Ti       2.93487975       2.90559087      10.07527006       0.00298855       0.00233265       0.00201696
Ti       0.00339023       5.70233517      10.50904376      -0.00157041      -0.00061567       0.00384383
Ti       2.93262048       5.70229965      10.50904146       0.00155613      -0.00057775       0.00392867
Ti       1.46797543       0.93856508      11.67982381      -0.00002265       0.00568306       0.00731903
Ti       4.40394828       0.94814925      11.64030597      -0.00000936       0.00598503       0.00347479
Ti       1.46802130       4.06383541      12.29276363       0.00003631      -0.00505838       0.00193093
Ti       4.40401087       4.06174333      12.30974437       0.00002814      -0.00621638      -0.00118292
Ti       2.96942488       2.07956156      13.72045920       0.00682334      -0.00266362      -0.00327469
Ti       5.83857930       2.07958643      13.72044595      -0.00680517      -0.00267986      -0.00315707
Ti       2.94332130       6.19390135      13.69702165       0.00205744      -0.00019824       0.00136125
Ti       5.86465067       6.19391329      13.69700523      -0.00200685      -0.00025242       0.00138281
Ti       4.40394592       4.00314889      15.12696617      -0.00002749      -0.00939692       0.00091444
Ti       1.46804127       4.07744971      15.09694647      -0.00008099      -0.00802213       0.00015204
Zn       4.40399686       0.93343434      15.72931651       0.00004547       0.00589750       0.00098856
Ti       1.46801060       0.98496961      15.80134129      -0.00001136       0.00774491       0.00595883
Ti       2.94017279       5.72534047      16.88345605       0.00134757      -0.00464061       0.00304779
Ti       5.86784571       5.72536737      16.88343538      -0.00126867      -0.00465405       0.00304070
Ti       2.90844228       2.87075800      17.33458594      -0.00466058      -0.00110273       0.00460554
Ti       0.02752426       2.87077552      17.33456883       0.00469976      -0.00097229       0.00447938
Ti       4.40402899       0.69104997      18.52351185      -0.00001465      -0.00366304       0.00799387
Ti       1.46802510       0.70290050      18.61234504      -0.00005573       0.00018009       0.00193678
Ti       4.40402485       4.72079842      19.07525396      -0.00010600       0.00243815      -0.00214180
Ti       1.46800010       4.66302826      19.11552905       0.00002973       0.00481886      -0.00416132
Ti       5.84957869       2.52211139      20.29899900      -0.00268878      -0.00006565      -0.00251190
Ti       2.95852530       2.52209504      20.29903736       0.00271160       0.00003433      -0.00260656
Ti       5.85276249       6.57527534      20.80549419      -0.00055997      -0.00206138      -0.00275212
Ti       2.95527359       6.57526512      20.80551522       0.00051077      -0.00198665      -0.00314993
Ti       1.46806362       4.43134393      21.96805130      -0.00007160      -0.00308333      -0.00059523
Ti       4.40403818       4.42718441      21.95540208       0.00014520      -0.00230929      -0.00494431
Ti       1.46802295       1.48890018      22.54222643      -0.00000050      -0.00165656       0.00152342
Ti       4.40403261       1.49774011      22.56439150      -0.00009754       0.00075517      -0.00450332
Ti       2.93624775       6.23135792      23.77656592       0.00133225      -0.00183080      -0.00029235
Ti       5.87182267       6.23137719      23.77658354      -0.00126642      -0.00203189      -0.00056028
Ti       2.93561104       3.40985019      24.19574468       0.00278138      -0.00406803       0.00040361
Ti       0.00046919       3.40980353      24.19575286      -0.00290559      -0.00366702       0.00030521
Ti       4.40407866       1.32353886      25.37459066      -0.00014616      -0.00460956       0.00411144
Ti       1.46800086       1.31827642      25.36403904       0.00017250      -0.00296711      -0.00412749
Ti       4.40401109       5.02915181      25.98704159       0.00001711      -0.00034155      -0.00149990
Ti       1.46803002       5.03229174      25.98379966       0.00003619       0.00081256      -0.00074904
