64
Lattice="5.871999 0.0 0.0 0.0 6.890708 0.0 0.0 0.0 27.401158" Properties=species:S:1:pos:R:3:forces:R:3 job_name=T1m-Cu-Cu-46-d-5.43 GB_type=T1m element=Cu system=Cu-46-d-5.43 distance=5.43 energy=-490.97370383 stress_kbar_3x3="_JSON [[-14.33592504, 0.0006032, 0.00015758], [0.00060319, -16.5512785, 0.86186319], [0.00015762, 0.86186317, -22.04043872]]" pbc="T T T"
Ti       2.92332476       0.10321928      27.39356989      -0.00477304       0.00543519       0.00242970
Ti       2.93807693       2.93929686      27.38433976       0.00086115      -0.00124729       0.00227895
Ti       0.01271566       0.10319433      27.39356511       0.00479747       0.00539897       0.00241175
Ti      -0.00200744       2.93928941      27.38435186      -0.00087641      -0.00114682       0.00225633
Ti       4.40400868       5.03006264       1.41433527      -0.00003049      -0.00130919       0.01048011
Ti       1.46800590       5.02447422       1.39051436       0.00004823       0.00214219       0.00501245
Ti       4.40402618       1.32286618       2.02430078      -0.00004626       0.00145772       0.00989644
Ti       1.46801304       1.32289424       2.02064192       0.00003933      -0.00090997       0.00780880
Ti       2.93530649       3.41335412       3.20591202      -0.00280508       0.00084213       0.01028333
Ti       0.00071030       3.41337022       3.20592097       0.00280018       0.00087099       0.01030227
Ti       2.93466790       6.22897180       3.61238182      -0.00188812      -0.00101634       0.00999902
Ti       0.00139739       6.22896913       3.61238875       0.00193563      -0.00095496       0.00999791
Ti       1.46802093       1.49022658       4.83183136      -0.00001583      -0.00041079       0.00567791
Ti       4.40402400       1.49191934       4.83624384       0.00001118      -0.00118612       0.00775169
Ti       1.46804039       4.44118420       5.43787248       0.00001001       0.00031363       0.00023409
Ti       4.40401005       4.44243078       5.43938101      -0.00000619       0.00063439       0.00288316
Ti       2.93427690       6.59618712       6.60039274       0.00006496       0.00000608      -0.00022121
Ti       0.00175704       6.59618520       6.60039410      -0.00007119       0.00002634      -0.00026050
Ti       2.93508530       2.51915727       7.10202086       0.00039718       0.00006722      -0.00194947
Ti       0.00095459       2.51915823       7.10200904      -0.00037306       0.00005423      -0.00196579
Ti       4.40400193       4.67233817       8.26410452      -0.00005411      -0.00115281      -0.00468877
Ti       1.46801659       4.67607434       8.26065265       0.00004311      -0.00109058      -0.00848660
Ti       4.40401346       0.73314625       8.86424335       0.00000500       0.00116337      -0.00641768
Ti       1.46799848       0.73400529       8.87378237       0.00003116       0.00368857      -0.00817992
Ti       0.00142850       2.88910516      10.09398413       0.00007885      -0.00006708      -0.00351762
Ti       2.93455005       2.88910100      10.09398660      -0.00010160      -0.00008722      -0.00354964
Ti       0.00346171       5.70052641      10.49904148      -0.00339502      -0.00012697      -0.00611594
Ti       2.93254831       5.70054276      10.49906217       0.00340185      -0.00013115      -0.00621152
Ti       1.46796827       0.90863637      11.68826240       0.00003432       0.00441910      -0.00249792
Ti       4.40402869       0.90246895      11.67337635      -0.00003273      -0.00152310      -0.00753730
Ti       1.46798833       4.08682014      12.32320984      -0.00003140      -0.00485813       0.00558240
Ti       4.40398545       4.08058903      12.29872657       0.00001144       0.00217137      -0.00024531
Ti       2.94009245       2.11060635      13.72537092      -0.00953656       0.00367340      -0.00131661
Ti       5.86792148       2.11061071      13.72536415       0.00951172       0.00368419      -0.00131786
Ti       2.93529525       6.18390900      13.72141210       0.00216343      -0.00219864       0.00179084
Ti       0.00064399       6.18391841      13.72138263      -0.00214588      -0.00215172       0.00176497
Ti       4.40398754       4.08027614      15.11141320      -0.00005021       0.00339546       0.00090540
Ti       1.46800507       4.07869036      15.15065052       0.00005307      -0.00633263      -0.00362121
Ti       4.40401334       0.85713445      15.79006417      -0.00001792      -0.00666010       0.01023886
Ti       1.46797982       0.86530258      15.74346954       0.00005625       0.00360333       0.00264322
Ti       2.96190933       5.67040860      16.97478712       0.01009235       0.00289432       0.00407474
Ti       5.84609185       5.67037797      16.97479934      -0.01010216       0.00284942       0.00410904
Ti       2.97512596       2.90083844      17.33647333      -0.00112869       0.00270220       0.00303320
Ti       5.83284747       2.90082996      17.33646466       0.00115282       0.00272884       0.00303033
Ti       4.40401078       0.68409724      18.55241092      -0.00007985      -0.00946305      -0.00888833
Ti       1.46800718       0.78251468      18.52690696      -0.00000572      -0.00307365      -0.00289006
Cu       4.40401795       4.72235575      19.13920714      -0.00000442       0.00521534      -0.00141416
Ti       1.46801818       4.75830979      19.21679491       0.00000129      -0.00456306      -0.00643640
Ti       5.84467395       2.57292849      20.26066800       0.00577195       0.00226785      -0.00392777
Ti       2.96337925       2.57293148      20.26069865      -0.00573284       0.00221033      -0.00396440
Ti       0.03807624       6.57297159      20.78160518      -0.00599789      -0.00078746      -0.00132608
Ti       2.89797320       6.57298200      20.78158747       0.00599274      -0.00067641      -0.00127723
Ti       1.46802748       4.42618487      22.02854352       0.00006742      -0.00712235       0.00509871
Ti       4.40404951       4.42050800      21.90325190      -0.00005308       0.00130411      -0.00380569
Ti       1.46804068       1.46973500      22.50714395       0.00006425       0.00435156       0.00128656
Ti       4.40404016       1.53426802      22.45722766      -0.00007382      -0.00059489      -0.01050003
Ti       2.96540121       6.24496631      23.75639790      -0.00412099      -0.00302105      -0.00683993
Ti       5.84269077       6.24496736      23.75639748       0.00408360      -0.00294412      -0.00677830
Ti       2.97941074       3.39532656      24.17430147      -0.00390209      -0.00137154      -0.00757887
Ti       5.82867062       3.39532933      24.17433581       0.00390362      -0.00134846      -0.00756998
Ti       4.40404830       1.29143960      25.34572601      -0.00000211      -0.00063049      -0.00117302
Ti       1.46802193       1.32505415      25.35672809      -0.00000656       0.00110168      -0.00171473
Ti       4.40404343       5.04528232      25.98174405      -0.00000432       0.00029255       0.00397934
Ti       1.46803660       5.02077209      25.94124286      -0.00001995      -0.00080793      -0.00305571
