64
Lattice="5.871999 0.0 0.0 0.0 6.890708 0.0 0.0 0.0 27.401158" Properties=species:S:1:pos:R:3 job_name=T1m-V-V-49-d-6.60 GB_type=T1m element=V system=V-49-d-6.60 distance=6.6 energy=-495.75345028 pbc="T T T"
Ti       2.93596691       0.10112964      27.39064146
Ti       2.93606626       2.93952203      27.38657416
Ti       0.00004882       0.10347050      27.39407791
Ti       0.00004618       2.93991060      27.37741595
Ti       4.40128605       5.02811592       1.40161018
Ti       1.47081562       5.02810006       1.40156830
Ti       4.40211465       1.32089681       2.01907871
Ti       1.46986772       1.32087210       2.01913334
Ti       2.93597589       3.41424605       3.20365274
Ti       0.00006558       3.41295202       3.20247545
Ti       2.93603961       6.22745238       3.60954502
Ti      -0.00004457       6.22737337       3.60754107
Ti       1.46771085       1.49045712       4.83128790
Ti       4.40423711       1.49038561       4.83130759
Ti       1.46762077       4.44285233       5.43527203
Ti       4.40444575       4.44299903       5.43540582
Ti       2.93602495       6.59685220       6.59782628
Ti      -0.00000957       6.59697368       6.59690634
Ti       2.93604081       2.51973077       7.10161285
Ti       0.00000511       2.51937708       7.10098166
Ti       4.40337813       4.67658264       8.26437808
Ti       1.46859472       4.67664692       8.26448381
Ti       4.40448531       0.73375233       8.86848230
Ti       1.46757171       0.73369324       8.86861077
Ti      -0.00000933       2.89281850      10.08745156
Ti       2.93601088       2.89270557      10.08852451
Ti       0.00001034       5.70693777      10.50138195
Ti       2.93594446       5.70816430      10.49995807
Ti       1.46320308       0.92015037      11.68601641
Ti       4.40878382       0.92018223      11.68627773
Ti       1.47127544       4.08934797      12.29887224
Ti       4.40070072       4.08941902      12.29895104
Ti       2.93597609       2.13256408      13.73364100
Ti      -0.00002719       2.13601487      13.73634209
Ti       2.93601799       6.19144704      13.70244195
Ti      -0.00005704       6.19505152      13.70380267
Ti       4.39603562       4.12039985      15.13624873
Ti       1.47596573       4.12043811      15.13628498
Ti       4.41340382       0.89113538      15.75251483
Ti       1.45863978       0.89107921      15.75259700
Ti       2.93593231       5.72366494      16.95180470
Ti       0.00008379       5.71855117      16.97628397
Ti       2.93597462       2.89514571      17.32737488
Ti       5.87198810       2.88532680      17.29337962
Ti       4.39473631       0.78411206      18.57890126
Ti       1.47731790       0.78418117      18.57903984
Ti       4.36269602       4.62084012      19.15158575
Ti       1.50932838       4.62072935      19.15166091
Ti       0.00007463       2.49559990      20.31000592
V        2.93610710       2.50521758      20.30244428
Ti       0.00010497       6.54329903      20.78007804
Ti       2.93582260       6.62369699      20.81225773
Ti       1.49668879       4.40930984      21.93559574
Ti       4.37538701       4.40924723      21.93563714
Ti       1.49226865       1.48861074      22.52446864
Ti       4.37982589       1.48867704      22.52454477
Ti       2.93598379       6.21940137      23.75173568
Ti       0.00013058       6.22168839      23.75817945
Ti       2.93598940       3.40259616      24.18625601
Ti       0.00007816       3.40486376      24.15323832
Ti       4.40728655       1.30939369      25.35038724
Ti       1.46481259       1.30927796      25.35033922
Ti       4.40584161       5.02996108      25.97156425
Ti       1.46627316       5.03000030      25.97143213
