64
Lattice="5.871999 0.0 0.0 0.0 6.890708 0.0 0.0 0.0 27.401158" Properties=species:S:1:pos:R:3:forces:R:3 job_name=T1m-Cu-Cu-35-d-0.00 GB_type=T1m element=Cu system=Cu-35-d-0.00 distance=0.0 energy=-490.78529338 stress_kbar_3x3="_JSON [[-13.5742694, 0.00082371, -0.00052601], [0.0008237, -15.78220784, 0.01702022], [-0.00052602, 0.01702021, -23.22894404]]" pbc="T T T"
Ti       2.93598905       0.09473534       0.00048222       0.00006927      -0.00543357       0.00203992
Ti       2.93603470       2.93213113       0.00013601       0.00004653       0.00248020       0.00106505
Ti       0.00002953       0.09601237       0.00048769      -0.00004082      -0.00515176       0.00205785
Ti       0.00005767       2.92997569       0.00019450      -0.00003919      -0.00042338       0.00097852
Ti       4.40499646       5.02122716       1.41714009       0.00068086       0.00210406      -0.00299549
Ti       1.46698369       5.02118395       1.41718300      -0.00068317       0.00222501      -0.00298159
Ti       4.40639125       1.30716431       2.03958432       0.00196343      -0.00193555      -0.00331738
Ti       1.46565824       1.30722661       2.03966978      -0.00192152      -0.00199244      -0.00344071
Ti       2.93601256       3.39892404       3.21917458       0.00011221       0.00195984      -0.00417705
Ti       5.87199586       3.40034092       3.22146122      -0.00010614       0.00064016      -0.00441004
Ti       2.93605607       6.21601617       3.63669207       0.00003642       0.00200840      -0.00339067
Ti      -0.00000435       6.21743109       3.63481337      -0.00003582       0.00243546      -0.00432295
Ti       1.47037617       1.47732866       4.86131793       0.00149468      -0.00113555      -0.00286038
Ti       4.40169949       1.47739215       4.86126036      -0.00154611      -0.00113036      -0.00292180
Ti       1.47083497       4.43156901       5.46888519       0.00131532       0.00111221       0.00014367
Ti       4.40120856       4.43148703       5.46889746      -0.00132679       0.00115704       0.00013641
Ti       2.93604217       6.58232289       6.63782306       0.00004600      -0.00024436       0.00461522
Ti      -0.00007573       6.58195669       6.63204753      -0.00001467       0.00017296       0.00562130
Ti       2.93608820       2.50999980       7.13538097       0.00002502      -0.00482029       0.00179996
Ti      -0.00001145       2.50879853       7.14026514      -0.00003827      -0.00154321       0.00256206
Ti       4.41604907       4.65768560       8.29718891      -0.00831250       0.00434349       0.00221657
Ti       1.45593512       4.65763386       8.29720135       0.00833527       0.00430244       0.00220669
Ti       4.40421713       0.74643091       8.89898662      -0.00612746      -0.00214923      -0.00036162
Ti       1.46774923       0.74645047       8.89890313       0.00616145      -0.00209221      -0.00040994
Ti      -0.00002203       2.88376730      10.18238279      -0.00005451      -0.00217923      -0.00262925
Ti       2.93599827       2.89047388      10.15991162       0.00007793       0.00162638      -0.00215334
Ti      -0.00000710       5.71827064      10.49883613      -0.00008381       0.00479359      -0.00513118
Ti       2.93603357       5.70526839      10.48379291       0.00011104      -0.00088960      -0.00615926
Ti       1.52870193       0.89628435      11.71796401       0.01626254      -0.00288647      -0.00296757
Ti       4.34326130       0.89631605      11.71806899      -0.01630697      -0.00290126      -0.00307920
Ti       1.43447042       4.15057221      12.30926029       0.01357935      -0.00125894      -0.00672253
Ti       4.43765311       4.15049554      12.30928065      -0.01371624      -0.00120792      -0.00679198
Ti       2.93595392       2.25291647      13.70012027       0.00008801      -0.00315399      -0.00306832
Ti      -0.00001274       2.05337963      13.69973208      -0.00005031      -0.00459774      -0.00338085
Ti       2.93600852       6.31685795      13.70048627       0.00004280       0.01042477      -0.00257736
Cu      -0.00000138       6.14942923      13.70027119       0.00001096       0.00534144      -0.00042165
Ti       4.43742927       4.15022813      15.09239554      -0.01362470      -0.00166844       0.00393852
Ti       1.43456015       4.15022865      15.09240980       0.01360680      -0.00160344       0.00396485
Ti       4.34358286       0.89662623      15.68301408      -0.01576724      -0.00235028       0.00226662
Ti       1.52837727       0.89658695      15.68304504       0.01577439      -0.00233971       0.00233210
Ti       2.93606319       5.70561364      16.91846573       0.00007569      -0.00150886       0.00747928
Ti      -0.00005349       5.71853749      16.90329361      -0.00008253       0.00436397       0.00614806
Ti       2.93602038       2.89056080      17.24190271       0.00005948       0.00196086       0.00376233
Ti       5.87198746       2.88404183      17.21975074      -0.00004512      -0.00165401       0.00457639
Ti       4.40434644       0.74678819      18.50294864      -0.00591495      -0.00210259       0.00178997
Ti       1.46771574       0.74685170      18.50298463       0.00590414      -0.00213822       0.00187343
Ti       4.41608895       4.65773772      19.10447037      -0.00802900       0.00436204      -0.00112205
Ti       1.45588851       4.65773795      19.10447089       0.00807224       0.00430075      -0.00118548
Ti       0.00000930       2.50894939      20.26103556      -0.00005632      -0.00121507      -0.00219804
Ti       2.93604475       2.51022235      20.26599833       0.00003898      -0.00457261      -0.00125718
Ti      -0.00000501       6.58197825      20.76920837      -0.00002937      -0.00017345      -0.00562851
Ti       2.93601472       6.58228715      20.76324296       0.00004824      -0.00050657      -0.00454276
Ti       1.47070086       4.43152156      21.93168347       0.00136300       0.00096626      -0.00022785
Ti       4.40125551       4.43149840      21.93168335      -0.00133106       0.00099143      -0.00031177
Ti       1.47040875       1.47709890      22.53927346       0.00144018      -0.00088718       0.00205489
Ti       4.40180348       1.47712907      22.53928878      -0.00152995      -0.00092897       0.00206321
Ti       2.93607139       6.21575777      23.76366238       0.00004448       0.00167084       0.00198528
Ti       0.00004870       6.21711980      23.76562612      -0.00000976       0.00199573       0.00276914
Ti       2.93602748       3.39863164      24.18076382       0.00002525       0.00197401       0.00337381
Ti       0.00003667       3.39987744      24.17854295      -0.00004588       0.00080940       0.00360371
Ti       4.40637614       1.30684143      25.36166053       0.00199230      -0.00241131       0.00398408
Ti       1.46576066       1.30677415      25.36166319      -0.00202310      -0.00230813       0.00395462
Ti       4.40505598       5.02145753      25.98347319       0.00069672       0.00248811       0.00490864
Ti       1.46699295       5.02145258      25.98349808      -0.00070774       0.00248502       0.00487360
