64
Lattice="5.871999 0.0 0.0 0.0 6.890708 0.0 0.0 0.0 27.401158" Properties=species:S:1:pos:R:3:forces:R:3 job_name=T1m-Cu-Cu-43-d-3.62 GB_type=T1m element=Cu system=Cu-43-d-3.62 distance=3.62 energy=-490.90151727 stress_kbar_3x3="_JSON [[-12.71017743, -0.00040201, -7.149e-05], [-0.00040196, -15.78865964, 0.75643674], [-7.147e-05, 0.75643674, -23.73409963]]" pbc="T T T"
Ti       2.93589340       0.09990984      27.38836042      -0.00004465       0.00255926      -0.00347583
Ti       2.93599917       2.93671367      27.38681948      -0.00004407      -0.00475634      -0.00208748
Ti       0.00018771       0.10095054      27.38900799      -0.00010345       0.00476959      -0.00154278
Ti       0.00001904       2.93811487      27.38910141       0.00004139      -0.00338645      -0.00218103
Ti       4.40588855       5.02724753       1.40031866       0.00002718      -0.00822581       0.00978471
Ti       1.46616039       5.02730292       1.40037013      -0.00000543      -0.00830047       0.00977810
Ti       4.40280567       1.32036731       2.02226308       0.00102214      -0.00208807       0.00567785
Ti       1.46920669       1.32034433       2.02226646      -0.00098550      -0.00215692       0.00574928
Ti       2.93601766       3.41128714       3.20650594       0.00019455       0.00229648      -0.00154120
Ti       5.87199181       3.41127494       3.20617426      -0.00016147       0.00147624      -0.00034048
Ti       2.93600419       6.22768177       3.61618772       0.00000939       0.00134380      -0.00175304
Ti       0.00000855       6.22682391       3.61727810       0.00002883       0.00223957      -0.00215987
Ti       1.46779322       1.49400226       4.83891909      -0.00026489      -0.00680834      -0.00602884
Ti       4.40423948       1.49402687       4.83872078       0.00025742      -0.00687338      -0.00587104
Ti       1.46664748       4.43813493       5.44696317      -0.00026291      -0.00030228      -0.00226272
Ti       4.40537925       4.43803165       5.44713337       0.00016933       0.00005117      -0.00300196
Ti       2.93588757       6.59385764       6.60824617       0.00017413      -0.00103179      -0.00428032
Ti       0.00008199       6.59685017       6.60681458       0.00000139      -0.00156132      -0.00320370
Ti       2.93597932       2.52013742       7.10731707      -0.00003726       0.00193922       0.00564155
Ti       0.00000753       2.51925377       7.11611444       0.00012451       0.00042033       0.00647307
Ti       4.40443172       4.67710787       8.27979839       0.00250057      -0.01004303       0.00785634
Ti       1.46754501       4.67706601       8.27993094      -0.00252051      -0.00988686       0.00703725
Ti       4.40876671       0.72654301       8.88259320       0.00034690       0.00996717       0.00893605
Ti       1.46325047       0.72649973       8.88251385      -0.00038278       0.01006929       0.00882544
Ti       0.00000015       2.88675815      10.10256564       0.00004611      -0.00318143      -0.00313844
Ti       2.93600024       2.87633726      10.07907742      -0.00008701      -0.00322132      -0.00257370
Ti      -0.00000596       5.70442540      10.53101508      -0.00007246      -0.01192428      -0.00153557
Ti       2.93599169       5.69440998      10.51442281       0.00001195      -0.01073481      -0.00424330
Ti       1.47233516       0.90331380      11.70002814      -0.00310783       0.00817573       0.00057992
Ti       4.39958110       0.90329107      11.69999978       0.00336356       0.00806175       0.00074310
Ti       1.48619411       4.07650476      12.31860842       0.00106016      -0.00225515      -0.00508610
Ti       4.38581057       4.07658329      12.31850555      -0.00097690      -0.00246798      -0.00470724
Ti       2.93597763       2.08017990      13.76421848      -0.00017351      -0.00444791       0.01508722
Ti       0.00006207       2.10161792      13.69461664       0.00001167      -0.01192051       0.00947390
Ti       2.93603289       6.14539357      13.70619074      -0.00005826      -0.00656349       0.01138011
Ti       0.00005708       6.13602468      13.82431640      -0.00002444       0.00164408       0.01456070
Ti       4.38530891       4.07012418      15.16722594       0.00456406       0.00379846       0.00858907
Ti       1.48672864       4.07017269      15.16716468      -0.00457614       0.00359650       0.00879457
Ti       4.48446008       0.95943204      15.76804225      -0.00228665       0.00706218      -0.00699160
Ti       1.38753915       0.95939667      15.76811425       0.00230468       0.00726160      -0.00708138
Ti       2.93599307       5.80201300      16.85530432       0.00001609      -0.01074782       0.00058624
Ti       0.00001630       5.65345569      16.90120988      -0.00000709       0.00461353      -0.00862213
Ti       2.93599725       2.97149019      17.39228069      -0.00000084       0.01218848      -0.00104764
Cu       0.00002081       2.87519761      17.32361966      -0.00002093       0.01410035       0.00848304
Ti       4.42928074       0.77767406      18.53019533       0.00100704       0.00811459       0.00574467
Ti       1.44274841       0.77774739      18.53019261      -0.00091145       0.00785200       0.00577376
Ti       4.36437466       4.67120394      19.08885045      -0.00067812      -0.00711859      -0.00423434
Ti       1.50769758       4.67113856      19.08888368       0.00067549      -0.00688484      -0.00441594
Ti       0.00008791       2.52821452      20.24594411      -0.00016994       0.00459142      -0.00460589
Ti       2.93600453       2.51386747      20.32473887       0.00000133       0.01470488      -0.01010586
Ti       0.00001616       6.61134701      20.71109782      -0.00001119       0.01321144      -0.00404591
Ti       2.93606185       6.57041902      20.75054152      -0.00002896       0.00200601      -0.00116711
Ti       1.45055570       4.44708889      21.92900651       0.00205448       0.00302557      -0.00002884
Ti       4.42152825       4.44711975      21.92906507      -0.00196072       0.00290985      -0.00029205
Ti       1.44802776       1.48047358      22.53035256      -0.00350741      -0.00554080      -0.00261381
Ti       4.42399593       1.48051111      22.53038696       0.00364840      -0.00572232      -0.00262325
Ti       2.93607096       6.22054542      23.76665855      -0.00020862       0.00153447       0.00029016
Ti       0.00000754       6.22422920      23.74015482       0.00008331      -0.00296199       0.00377270
Ti       2.93606251       3.39917921      24.15477271      -0.00024232       0.00788289      -0.00359507
Ti       0.00006028       3.40627763      24.17364447      -0.00003851       0.00124179       0.00183016
Ti       4.40243363       1.31709720      25.35015999       0.00094046      -0.00011421      -0.00969099
Ti       1.46962434       1.31718220      25.34999830      -0.00081160      -0.00021052      -0.00943247
Ti       4.40273106       5.02433689      25.96921735      -0.00121017      -0.00673194      -0.01492608
Ti       1.46929816       5.02428765      25.96926484       0.00129748      -0.00653869      -0.01491397
