64
Lattice="5.871999 0.0 0.0 0.0 6.890708 0.0 0.0 0.0 27.401158" Properties=species:S:1:pos:R:3:forces:R:3 job_name=T1m-Zn-Zn-47-d-5.43 GB_type=T1m element=Zn system=Zn-47-d-5.43 distance=5.43 energy=-488.76243255 stress_kbar_3x3="_JSON [[-12.70189812, -0.00052432, 0.00041046], [-0.00052431, -13.3198888, 0.17266602], [0.00041044, 0.17266606, -19.09219293]]" pbc="T T T"
Ti       2.94057011       0.10545840      -0.00007982       0.00626776      -0.00213531      -0.00346691
Ti       2.93578224       2.94375948      27.39812039      -0.00013802      -0.00367021      -0.00383663
Ti       5.86751483       0.10545553      -0.00007303      -0.00619980      -0.00215389      -0.00345246
Ti       0.00023077       2.94377509      27.39811786       0.00018945      -0.00364715      -0.00385036
Ti       4.40403862       5.03325201       1.41148087      -0.00000275      -0.00203399      -0.00811716
Ti       1.46802596       5.03420467       1.41313331       0.00002605      -0.00057504       0.00013514
Ti       4.40402422       1.31884784       2.02889698      -0.00000316      -0.00003063      -0.00467963
Ti       1.46806049       1.31879876       2.02838358      -0.00000906      -0.00006455      -0.00697271
Ti       2.93499437       3.41159437       3.20277761       0.00031430      -0.00141738      -0.00142474
Ti       0.00105983       3.41158212       3.20277449      -0.00049084      -0.00154852      -0.00148006
Ti       2.93588680       6.23119304       3.62000436       0.00027530      -0.00088449      -0.00600534
Ti       0.00019567       6.23119219       3.62000357      -0.00031746      -0.00091712      -0.00608043
Ti       1.46804288       1.49302096       4.83695805       0.00002757       0.00057419      -0.00328102
Ti       4.40402563       1.49277156       4.83785996       0.00006433      -0.00019338      -0.00520529
Ti       1.46802892       4.43885546       5.43747757      -0.00009526       0.00034966      -0.00211038
Ti       4.40400363       4.43860725       5.43610052      -0.00001900       0.00088850      -0.00169678
Ti       2.93576271       6.59393015       6.59664359       0.00073949       0.00352992       0.00116715
Ti       0.00025562       6.59392481       6.59664625      -0.00070330       0.00356818       0.00119090
Ti       2.93555312       2.52215486       7.10339421      -0.00035761      -0.00345450      -0.00175843
Ti       0.00049018       2.52216795       7.10339455       0.00031546      -0.00357972      -0.00170543
Ti       4.40400996       4.67820384       8.26308222       0.00004706      -0.00052772       0.00101782
Ti       1.46800069       4.67740775       8.26387123      -0.00000037      -0.00021497       0.00113095
Ti       4.40400507       0.73140885       8.86311060      -0.00001306       0.00039303       0.00609574
Ti       1.46800530       0.73080348       8.86425647      -0.00003645      -0.00285847       0.00488181
Ti       0.00016797       2.88543456      10.08335667      -0.00166175      -0.00095479       0.01498237
Ti       2.93579820       2.88543505      10.08336489       0.00164966      -0.00099182       0.01498639
Ti       0.00134291       5.70403786      10.49820706      -0.00231276      -0.00215184       0.00689427
Ti       2.93464117       5.70403229      10.49820067       0.00234288      -0.00214166       0.00688442
Ti       1.46797728       0.90471336      11.67095507      -0.00006602      -0.00178154       0.00122085
Ti       4.40396410       0.90768220      11.67366440       0.00006977      -0.00280948      -0.00148922
Ti       1.46796663       4.08136575      12.28076222       0.00002764       0.00051581      -0.00040183
Ti       4.40400913       4.08450845      12.29834242       0.00001759       0.00399885      -0.00003596
Ti       2.93996072       2.11409361      13.69677594       0.00482256      -0.00057747      -0.01206945
Ti       5.86800231       2.11407506      13.69678116      -0.00487844      -0.00061950      -0.01202519
Ti       2.93934754       6.18006791      13.71145020       0.00088059       0.00211181      -0.00643435
Ti       5.86860326       6.18006786      13.71145255      -0.00089448       0.00217472      -0.00641276
Ti       4.40400725       4.07005702      15.12373224       0.00009085      -0.00947895      -0.00441157
Ti       1.46796779       4.08159291      15.08604516      -0.00004597      -0.01077176      -0.00087208
Ti       4.40396629       0.90160108      15.72867442       0.00013172       0.00193426       0.00242987
Ti       1.46797869       0.87734786      15.75321238      -0.00016534       0.00991199      -0.00137540
Ti       2.92351083       5.68640999      16.91732152      -0.00126940       0.00031810       0.01452698
Ti       0.01249584       5.68640514      16.91732910       0.00125115       0.00022790       0.01446251
Ti       2.90797527       2.90647849      17.33208306       0.00003567       0.00249971       0.00947556
Ti       0.02800768       2.90648533      17.33206326       0.00001139       0.00252795       0.00949093
Ti       4.40402358       0.78349861      18.52625563       0.00002696      -0.00115877       0.00742684
Ti       1.46802869       0.67196378      18.54316957      -0.00003267       0.01608732       0.00888613
Ti       4.40402521       4.73876259      19.19165141       0.00007436       0.00177085       0.01126827
Zn       1.46802036       4.70161418      19.12447260       0.00000946       0.01330756       0.01397971
Ti       0.01685566       2.54161719      20.29276636      -0.00051967       0.00646021      -0.00397429
Ti       2.91923047       2.54161417      20.29278155       0.00052391       0.00648021      -0.00390906
Ti       5.84852783       6.57240240      20.78815437      -0.00106150       0.00264407       0.00347022
Ti       2.95954384       6.57239910      20.78816939       0.00101937       0.00257726       0.00345246
Ti       1.46804278       4.41373616      21.93730202       0.00004028       0.00490415       0.00195532
Ti       4.40404870       4.42263567      22.03332733       0.00010691      -0.00320528      -0.00151687
Ti       1.46802819       1.52217378      22.50442808       0.00004783      -0.00209137      -0.01101541
Ti       4.40403482       1.47614899      22.53971624      -0.00000901       0.00431113      -0.00541172
Ti       2.91825943       6.23566792      23.77840685      -0.00116222      -0.00064840      -0.00386244
Ti       0.01780887       6.23567001      23.77838734       0.00113453      -0.00066413      -0.00390762
Ti       2.91708660       3.40184811      24.19505657      -0.00559266      -0.00190919      -0.00291412
Ti       0.01900082       3.40186351      24.19505934       0.00558499      -0.00192622      -0.00283830
Ti       4.40404351       1.32068491      25.37560602      -0.00002860      -0.00357013      -0.00267229
Ti       1.46803544       1.31748558      25.36350543      -0.00008456      -0.01353480       0.00054619
Ti       4.40403394       5.03163733      25.97866737       0.00003540      -0.00335243      -0.00716863
Ti       1.46802127       5.03790641      25.99006279      -0.00003107       0.00017922      -0.00211651
