64
Lattice="5.871999 0.0 0.0 0.0 6.890708 0.0 0.0 0.0 27.401158" Properties=species:S:1:pos:R:3:forces:R:3 job_name=T1m-Al-Al-36-d-1.42 GB_type=T1m element=Al system=Al-36-d-1.42 distance=1.42 energy=-492.05328845 stress_kbar_3x3="_JSON [[-10.00935547, 0.00076042, -0.00052963], [0.00076045, -14.17074995, 1.48464233], [-0.00052961, 1.48464228, -16.33064748]]" pbc="T T T"
Ti       2.94234031       0.10296272      27.40023417       0.00087265      -0.00303338       0.00122310
Ti       2.93706090       2.93795759       0.00216395      -0.00026528       0.00238342       0.00387981
Ti       5.86572155       0.10295791      27.40023556      -0.00085432      -0.00304389       0.00124799
Ti       5.87100982       2.93794595       0.00216605       0.00028558       0.00240168       0.00387310
Ti       4.40401611       5.02768457       1.41435142       0.00004793       0.00349544      -0.00340892
Ti       1.46801436       5.03026138       1.41471024       0.00003955       0.00248753      -0.00517614
Ti       4.40405557       1.31983290       2.02896301      -0.00014744      -0.00399435      -0.00472513
Ti       1.46804446       1.31921509       2.03028085      -0.00000733      -0.00668705      -0.00675981
Ti       2.93241488       3.41156588       3.21008881       0.00013724      -0.00052359      -0.00383927
Ti       0.00364632       3.41156658       3.21008602      -0.00014629      -0.00051611      -0.00381339
Ti       2.93373277       6.23084506       3.62016255       0.00072786      -0.00012565      -0.00080470
Ti       0.00234251       6.23083819       3.62016444      -0.00073811      -0.00010866      -0.00081407
Ti       1.46802360       1.49443482       4.84388350       0.00000456      -0.00147250       0.00013337
Ti       4.40402752       1.49227781       4.83812860       0.00001540       0.00095095       0.00726264
Ti       1.46802994       4.43965651       5.45154247      -0.00001979      -0.00526093      -0.00050071
Ti       4.40402104       4.44036511       5.43099614       0.00008619      -0.00108699       0.01135572
Ti       2.93971028       6.59361075       6.59804708      -0.00036389      -0.00075237      -0.00074713
Ti      -0.00367487       6.59361355       6.59804919       0.00035953      -0.00079183      -0.00076249
Ti       2.93732924       2.52218033       7.10451693       0.00106036       0.00002834      -0.00068486
Ti      -0.00128303       2.52217598       7.10452390      -0.00107123       0.00005723      -0.00071166
Ti       4.40400549       4.68558692       8.25845162       0.00001076      -0.00269629      -0.00347346
Ti       1.46800449       4.67262038       8.28627426       0.00001511       0.00055447      -0.00785176
Ti       4.40401370       0.72242320       8.87493968      -0.00001358       0.00148951      -0.00532186
Ti       1.46801038       0.73095762       8.84574364       0.00001761      -0.00246564       0.00097120
Ti       5.85314576       2.86766368      10.06747231       0.00607043      -0.00200148       0.00060687
Ti       2.95484919       2.86766150      10.06746778      -0.00607980      -0.00202226       0.00060148
Ti       5.83338556       5.70943689      10.49600749       0.01257778      -0.01085073       0.00490616
Ti       2.97461795       5.70943038      10.49600588      -0.01258431      -0.01078237       0.00491172
Ti       1.46798349       0.87790724      11.67584438       0.00004110       0.00298476       0.00227757
Ti       4.40399273       0.94745457      11.72422963      -0.00001994      -0.00528737      -0.00018905
Ti       1.46800191       4.05584914      12.20643405      -0.00001772       0.00067842      -0.00795264
Ti       4.40398395       4.04857502      12.29677614       0.00002380      -0.00065142       0.00484912
Ti       2.89087467       2.12537464      13.70309133       0.01046568       0.01524270      -0.00704073
Ti       0.04510892       2.12536627      13.70308421      -0.01051821       0.01543633      -0.00698415
Ti       2.93403640       6.12414898      13.69413591       0.00084335      -0.01534369      -0.00287321
Ti       0.00190497       6.12415601      13.69413334      -0.00085380      -0.01544455      -0.00282952
Al       4.40397175       4.06001016      15.11897684       0.00017973       0.00509007      -0.00516158
Ti       1.46797822       4.05479012      15.06661798      -0.00003341      -0.00655408       0.00528741
Ti       4.40399811       0.96061792      15.73007201      -0.00000103       0.00480131       0.00429372
Ti       1.46798256       0.86500705      15.73166025       0.00004204      -0.00051576       0.01119772
Ti       2.96884274       5.68814207      16.90661749      -0.00554583      -0.00649222       0.00374550
Ti       5.83915772       5.68813930      16.90662061       0.00547275      -0.00659435       0.00367723
Ti       2.94607600       2.90546276      17.32395933      -0.00310443      -0.00010212       0.00048467
Ti       5.86191357       2.90545506      17.32396588       0.00302252      -0.00004767       0.00037881
Ti       4.40399760       0.74964934      18.52402302       0.00009755       0.00363218       0.00453583
Ti       1.46800884       0.74986132      18.52579399       0.00001182      -0.00113316      -0.00077532
Ti       4.40400609       4.71284078      19.17991971       0.00000404       0.00672668       0.00170458
Ti       1.46801553       4.69920131      19.13975317      -0.00001032       0.00383789      -0.00090182
Ti       0.00514664       2.52577468      20.29022430      -0.00363853       0.00422143      -0.00148555
Ti       2.93091906       2.52575646      20.29022209       0.00357731       0.00425847      -0.00150004
Ti      -0.00047679       6.61655875      20.80582592      -0.00371070      -0.00018302       0.00017345
Ti       2.93652595       6.61655699      20.80583704       0.00365786      -0.00016697       0.00011679
Ti       1.46804169       4.44745292      21.95085995      -0.00003123       0.00270529      -0.00003324
Ti       4.40401868       4.44870231      21.97606496       0.00005667       0.00403168      -0.00766206
Ti       1.46801940       1.50661302      22.56822752       0.00012137       0.00074506      -0.00787393
Ti       4.40404168       1.50199960      22.56341998      -0.00012717       0.00330430      -0.00507534
Ti       2.93376834       6.23565764      23.78974174       0.00121456       0.00452458       0.00039301
Ti       0.00232701       6.23566073      23.78973705      -0.00128967       0.00446962       0.00045814
Ti       2.93088603       3.42067766      24.19060965       0.00091363       0.00445969      -0.00091908
Ti       0.00516107       3.42069152      24.19059462      -0.00095200       0.00454958      -0.00094439
Ti       4.40403527       1.32627369      25.37220305       0.00000706       0.00074785       0.00732087
Ti       1.46800304       1.32434975      25.37766131       0.00005532       0.00058511       0.00700887
Ti       4.40404255       5.02762991      25.99044571      -0.00001060       0.00189971       0.00536158
Ti       1.46804528       5.02949866      25.99401429       0.00001927       0.00395115       0.00535895
