64
Lattice="5.871999 0.0 0.0 0.0 6.890708 0.0 0.0 0.0 27.401158" Properties=species:S:1:pos:R:3:forces:R:3 job_name=T1m-Cu-Cu-34-d-0.00 GB_type=T1m element=Cu system=Cu-34-d-0.00 distance=0.0 energy=-490.78807404 stress_kbar_3x3="_JSON [[-6.01300737, -0.00281336, 0.00051908], [-0.00281336, -8.24706408, 0.00439266], [0.00051902, 0.00439266, -15.73826731]]" pbc="T T T"
Ti       2.93599853       0.09515999       0.00020530      -0.00012431      -0.01168176      -0.00095340
Ti       2.93604381       2.92822520       0.00004961      -0.00002717      -0.00107854      -0.00044854
Ti       5.87199765       0.09557652       0.00022175       0.00033458      -0.01197948      -0.00085017
Ti       0.00004264       2.93039988       0.00023844       0.00012721      -0.00175924      -0.00089878
Ti       4.40506876       5.02062094       1.41823240       0.00161801       0.00414223      -0.00531473
Ti       1.46697805       5.02060828       1.41824695      -0.00167476       0.00435501      -0.00534213
Ti       4.40277838       1.30978522       2.03998714       0.00127550      -0.00467261      -0.01020318
Ti       1.46923527       1.30977760       2.03994295      -0.00122803      -0.00478185      -0.00985978
Ti       2.93601165       3.40192929       3.22281439      -0.00005441      -0.00144458      -0.00726328
Ti       0.00000892       3.40163195       3.22165208       0.00012646       0.00009914      -0.00548136
Ti       2.93601835       6.22074813       3.63357967      -0.00013989      -0.00538601      -0.00317030
Ti       5.87199337       6.21960892       3.63669272       0.00024382      -0.00848016      -0.00986508
Ti       1.46678650       1.47815149       4.85961107       0.00098700      -0.00430822       0.00237806
Ti       4.40525782       1.47815966       4.85958558      -0.00121339      -0.00433502       0.00302310
Ti       1.46743619       4.43414854       5.46539613      -0.00215748       0.00409384      -0.00073190
Ti       4.40458781       4.43415296       5.46554085       0.00198107       0.00412655      -0.00129201
Ti       2.93596531       6.58319997       6.62853329      -0.00037839       0.00284027       0.00366390
Ti       5.87197556       6.57881675       6.63641802       0.00047521       0.00825348       0.00329522
Ti       2.93595837       2.51061527       7.13780778      -0.00014451      -0.00170073       0.00286668
Ti       5.87199253       2.51293941       7.12642205       0.00021879      -0.00754423       0.00484294
Ti       4.38996578       4.65591415       8.29499475       0.00529826       0.00348784       0.00358402
Ti       1.48199300       4.65590971       8.29484517      -0.00514411       0.00376524       0.00369421
Ti       4.40058738       0.74980587       8.89538078       0.01159249      -0.00492018      -0.00922924
Ti       1.47129474       0.74973587       8.89551923      -0.01146954      -0.00451523      -0.00933311
Ti       5.87199381       2.88708040      10.15815093       0.00038244       0.01044058      -0.00086539
Ti       2.93595065       2.88619762      10.18173534      -0.00036888       0.00913667       0.00889385
Ti       0.00013533       5.69891857      10.48354078       0.00030785      -0.00738302      -0.00198816
Ti       2.93588101       5.71649564      10.50224777      -0.00047459      -0.00255793       0.01493579
Ti       1.40821640       0.89404901      11.71415751       0.00490575      -0.00568728       0.00488345
Ti       4.46416051       0.89399538      11.71379835      -0.00521744      -0.00568484       0.00544270
Ti       1.50531877       4.14551555      12.31104836       0.00650456       0.01243272       0.00994364
Ti       4.36640652       4.14567543      12.31089563      -0.00617077       0.01220571       0.01085777
Ti       2.93670426       2.05092896      13.70035978       0.00082692      -0.00121867       0.00139164
Ti       5.87158879       2.24161491      13.70019040      -0.00037465       0.01224597       0.00262876
Cu       2.93595822       6.16402109      13.70052765       0.00011459       0.01361394      -0.00003518
Ti       5.87188070       6.31188312      13.70030110      -0.00053633      -0.01090565       0.00154576
Ti       4.36647178       4.14561501      15.08968043      -0.00609523       0.01163636      -0.00710322
Ti       1.50541623       4.14550034      15.08974033       0.00585888       0.01154148      -0.00759375
Ti       4.46407215       0.89389105      15.68726569      -0.00369658      -0.00393706      -0.00580899
Ti       1.40824868       0.89393750      15.68694249       0.00360410      -0.00393477      -0.00557893
Ti       2.93596160       5.71659173      16.89891710       0.00020874      -0.00371225      -0.01576391
Ti       0.00007655       5.69894544      16.91793596      -0.00012604      -0.00781810      -0.00122145
Ti       2.93596807       2.88627958      17.21981596       0.00051950       0.00888302      -0.01223489
Ti       0.00006477       2.88720434      17.24329088      -0.00046141       0.00961741      -0.00158361
Ti       4.40073726       0.74969417      18.50607155       0.01114731      -0.00377087       0.00637435
Ti       1.47124126       0.74971838      18.50589937      -0.01107274      -0.00380445       0.00685258
Ti       4.38995319       4.65594658      19.10647875       0.00585897       0.00328221      -0.00570367
Ti       1.48209446       4.65598137      19.10647995      -0.00584748       0.00296653      -0.00515099
Ti       5.87198705       2.51287836      20.27484096       0.00053241      -0.00723718      -0.00497560
Ti       2.93605113       2.51068103      20.26344661      -0.00064891      -0.00223097      -0.00272338
Ti       0.00004617       6.57872589      20.76477783       0.00005383       0.00870925      -0.00232605
Ti       2.93599290       6.58307952      20.77254248      -0.00006071       0.00370058      -0.00174637
Ti       1.46738355       4.43407329      21.93534875      -0.00136106       0.00394986       0.00419762
Ti       4.40465210       4.43404908      21.93534972       0.00140800       0.00424238       0.00402954
Ti       1.46680751       1.47813644      22.54132804       0.00108075      -0.00446405      -0.00029494
Ti       4.40524652       1.47815099      22.54134169      -0.00107478      -0.00489624      -0.00038311
Ti       2.93606333       6.22071761      23.76734841      -0.00028365      -0.00506723       0.00407516
Ti       0.00004361       6.21959334      23.76429014       0.00019431      -0.00845471       0.01078909
Ti       2.93607207       3.40188408      24.17823631      -0.00065938      -0.00162258       0.00751408
Ti       5.87194842       3.40152744      24.17943487       0.00078548       0.00015664       0.00587432
Ti       4.40285769       1.30966358      25.36140941       0.00073602      -0.00478568       0.00893749
Ti       1.46920221       1.30965033      25.36140063      -0.00079366      -0.00458860       0.00862115
Ti       4.40514382       5.02073492      25.98313777       0.00113623       0.00424485       0.00401208
Ti       1.46697809       5.02074401      25.98311622      -0.00136479       0.00418023       0.00416965
