64
Lattice="5.871999 0.0 0.0 0.0 6.890708 0.0 0.0 0.0 27.401158" Properties=species:S:1:pos:R:3 job_name=T1m-Cu-Cu-41-d-3.20 GB_type=T1m element=Cu system=Cu-41-d-3.20 distance=3.2 energy=-491.33644407 pbc="T T T"
Ti       2.93603391      -0.00299240       0.19147931
Ti       2.93606369       2.82259307      27.19254731
Ti       0.00009056      -0.00012515       0.18659009
Ti       0.00006622       2.82022709      27.19892217
Ti       4.40803159       4.80577779       1.38273047
Ti       1.46403878       4.80576294       1.38267374
Ti       4.40389446       1.59246808       2.00544995
Ti       1.46819579       1.59257323       2.00548755
Ti       2.93599460       3.56619903       3.40632662
Ti       0.00009300       3.56487925       3.40746145
Ti       2.93606446       6.39360945       3.44218016
Ti       0.00004883       6.39227292       3.44193868
Ti       1.46872292       1.59918149       4.84660195
Ti       4.40325820       1.59906998       4.84678624
Ti       1.46530785       4.75212393       5.46755478
Ti       4.40665712       4.75209721       5.46757163
Ti       2.93611700       6.84616641       6.63465647
Ti      -0.00005974       6.84876887       6.63839309
Ti       2.93606388       2.77364487       7.08007633
Ti       0.00000225       2.77278964       7.07203094
Ti       4.40299559       4.93711078       8.29294046
Ti       1.46896874       4.93712687       8.29285186
Ti       4.40268556       0.97345863       8.89865914
Ti       1.46933185       0.97340167       8.89860329
Ti      -0.00008025       3.13204580      10.05050536
Ti       2.93606851       3.13203377      10.05870356
Ti      -0.00015629       5.95543798      10.57225120
Ti       2.93607654       5.94921167      10.58458676
Ti       1.45931562       1.23607404      11.73928835
Ti       4.41268550       1.23610319      11.73909947
Ti       1.46739688       4.13363576      12.34438151
Ti       4.40459254       4.13348661      12.34422272
Ti       2.93588662       2.21942892      13.98368110
Ti       0.00006882       2.27027495      14.05325257
Ti       2.93586609       6.29233787      13.56749897
Ti       0.00007534       6.32903743      13.49551776
Ti       4.44382557       4.34688074      15.17104826
Ti       1.42817869       4.34684425      15.17093468
Ti       4.45346242       0.54492846      15.73900511
Ti       1.41863212       0.54482882      15.73887358
Ti       2.93587831       5.41938787      17.11191142
Cu       0.00006873       5.54787657      17.10197619
Ti       2.93593583       2.59395960      17.12949946
Ti      -0.00000567       2.71776658      17.14157400
Ti       4.45824239       0.54878603      18.51275313
Ti       1.41380012       0.54859611      18.51279379
Ti       4.45583827       4.40657840      19.07359445
Ti       1.41621482       4.40666232      19.07358884
Ti      -0.00005640       2.31017946      20.19166779
Ti       2.93604319       2.26323290      20.25619438
Ti       0.00005385       6.37841933      20.77311507
Ti       2.93596269       6.34231415      20.69624934
Ti       1.46694377       4.18151018      21.91288228
Ti       4.40515438       4.18148374      21.91307184
Ti       1.46138032       1.29723449      22.51229804
Ti       4.41069039       1.29725284      22.51229289
Ti       2.93602773       6.00849301      23.67186944
Ti       0.00003299       6.01676583      23.68958531
Ti       2.93610142       3.19166084      24.19448708
Ti      -0.00003300       3.19035679      24.19991660
Ti       4.40151369       1.03772759      25.35371233
Ti       1.47057762       1.03759710      25.35381629
Ti       4.40140725       4.98044127      25.95738779
Ti       1.47062801       4.98053375      25.95745359
