64
Lattice="5.871999 0.0 0.0 0.0 6.890708 0.0 0.0 0.0 27.401158" Properties=species:S:1:pos:R:3:forces:R:3 job_name=T1m-Zr-Zr-39-d-2.03 GB_type=T1m element=Zr system=Zr-39-d-2.03 distance=2.03 energy=-495.68545778 stress_kbar_3x3="_JSON [[-2.67452283, -0.00073082, -0.00028158], [-0.00073083, -3.87918972, -0.35925616], [-0.00028156, -0.35925615, -9.57875662]]" pbc="T T T"
Ti       2.92983173       0.09884222       0.00869478      -0.00323197      -0.00119230       0.00253160
Ti       2.93482727       2.93909560       0.00956339      -0.00121481      -0.00105891      -0.00009808
Ti       0.00619260       0.09883600       0.00869764       0.00325013      -0.00115987       0.00254395
Ti       0.00127397       2.93910443       0.00957431       0.00123407      -0.00106443      -0.00009570
Ti       4.40402043       5.02792122       1.41730560      -0.00005701       0.00076596       0.00224443
Ti       1.46799951       5.02687891       1.41672670       0.00003198       0.00197047       0.00311598
Ti       4.40404322       1.31912162       2.02666371      -0.00002138      -0.00086890      -0.00147848
Ti       1.46799937       1.32159715       2.02653706       0.00006126      -0.00048876      -0.00179566
Ti       2.93866498       3.40959306       3.20228265      -0.00028736       0.00022701       0.00102287
Ti       5.86937894       3.40958722       3.20227512       0.00023208       0.00014693       0.00103391
Ti       2.93688301       6.23087476       3.61135474       0.00017713       0.00000671      -0.00319271
Ti       5.87112488       6.23086637       3.61133926      -0.00012928      -0.00001102      -0.00313050
Ti       1.46802579       1.49161277       4.82556073      -0.00003443       0.00277792      -0.00334190
Ti       4.40400800       1.49061389       4.83082317       0.00003370      -0.00043239       0.00082183
Ti       1.46801340       4.44031152       5.42015973       0.00001354      -0.00287103      -0.00471310
Ti       4.40399633       4.43962093       5.42751788       0.00002752       0.00003488      -0.00059839
Ti       2.92967880       6.59283972       6.58221485      -0.00017113       0.00100390       0.00073065
Ti       0.00638120       6.59284667       6.58222806       0.00017154       0.00098645       0.00077158
Ti       2.93227004       2.52180692       7.08104850       0.00050267      -0.00034813      -0.00117026
Ti       0.00374121       2.52179870       7.08104070      -0.00054890      -0.00038058      -0.00110061
Ti       4.40400839       4.66734521       8.24601640       0.00003846       0.00047412      -0.00025384
Ti       1.46801202       4.67832196       8.23430234      -0.00000298       0.00193609       0.00011698
Ti       4.40402801       0.74021152       8.81291450      -0.00004159       0.00166440       0.00044785
Ti       1.46801280       0.73226497       8.85654294       0.00002499       0.00089331      -0.00033027
Ti       0.00913535       2.88516864      10.05718336       0.00194018       0.00213250       0.00188156
Ti       2.92685729       2.88519192      10.05717604      -0.00190728       0.00209545       0.00184827
Ti       0.02652971       5.70690272      10.45557714       0.00055975       0.00188948      -0.00114024
Ti       2.90946726       5.70688328      10.45557552      -0.00054823       0.00196699      -0.00115521
Ti       1.46796485       0.91564277      11.66988031       0.00000895       0.00173411       0.00489923
Ti       4.40400294       0.88483347      11.59385553      -0.00001378       0.00204350      -0.00240643
Ti       1.46798487       4.09962719      12.27816311      -0.00008497      -0.00162907       0.00296324
Ti       4.40402238       4.10507594      12.22710103       0.00003864       0.00182732      -0.00376590
Ti       3.01969717       2.14884576      13.62647396       0.00630904      -0.00172979       0.00185122
Ti       5.78828053       2.14885732      13.62642197      -0.00620909      -0.00186846       0.00206864
Ti       2.97820629       6.16308692      13.62034569       0.00082697       0.00094470      -0.00074859
Ti       5.82975540       6.16310257      13.62031081      -0.00084846       0.00094884      -0.00078066
Ti       4.40398824       4.09322411      15.08180764       0.00005315       0.00180029      -0.00438210
Ti       1.46799144       4.12398113      15.13633465      -0.00005645       0.00041176       0.00075550
Ti       4.40395496       0.88710077      15.70580837       0.00006999       0.00217989       0.00299054
Zr       1.46803878       0.88038368      15.68750260      -0.00024218      -0.00227332      -0.00677151
Ti       2.98431220       5.66908100      16.98322673       0.00310387      -0.00321034       0.00273563
Ti       5.82369554       5.66906451      16.98324259      -0.00305503      -0.00294360       0.00279152
Ti       2.95827841       2.91517193      17.35392765       0.00289681       0.00326538      -0.00366604
Ti       5.84969795       2.91521670      17.35393981      -0.00286300       0.00305812      -0.00368563
Ti       4.40401455       0.73242312      18.55201642       0.00003117      -0.00330611       0.00204889
Ti       1.46803109       0.73751043      18.60895687      -0.00000805      -0.00251984       0.00931764
Ti       4.40402995       4.67738211      19.21146545       0.00006435      -0.00156507       0.00000630
Ti       1.46801222       4.66579178      19.17927414      -0.00001562      -0.00532352      -0.00262309
Ti       5.86755060       2.51284400      20.33861407       0.00007293       0.00048345       0.00225329
Ti       2.94052777       2.51283555      20.33862889       0.00003191       0.00059795       0.00214609
Ti       5.86604231       6.59863313      20.83203325       0.00149569       0.00028642      -0.00270003
Ti       2.94201480       6.59863079      20.83204307      -0.00150955       0.00020911      -0.00281709
Ti       1.46805268       4.44017571      21.98736799      -0.00016678       0.00117479       0.00008945
Ti       4.40404673       4.44138841      22.00467123      -0.00002056       0.00172622       0.00026333
Ti       1.46804339       1.49091202      22.58760807      -0.00004676       0.00260756      -0.00120052
Ti       4.40405190       1.48929266      22.60283573      -0.00004160      -0.00154975       0.00054077
Ti       2.93413895       6.22999167      23.80988180       0.00070134       0.00022363      -0.00090919
Ti       0.00191856       6.22997947      23.80991844      -0.00076933       0.00026527      -0.00091197
Ti       2.93434973       3.41120901      24.21739602      -0.00000648      -0.00053059       0.00094186
Ti       0.00173239       3.41119806      24.21739357       0.00012091      -0.00043956       0.00106356
Ti       4.40402373       1.32337718      25.39917342       0.00007967       0.00071403      -0.00148720
Ti       1.46801716       1.32337465      25.38828479      -0.00007445      -0.00213636       0.00127278
Ti       4.40402978       5.02466035      26.00628239      -0.00002335      -0.00439590       0.00322464
Ti       1.46804874       5.02562689      26.00565512       0.00004741      -0.00217733      -0.00088470
