64
Lattice="5.871999 0.0 0.0 0.0 6.890708 0.0 0.0 0.0 27.401158" Properties=species:S:1:pos:R:3:forces:R:3 job_name=T1m-V-V-36-d-1.42 GB_type=T1m element=V system=V-36-d-1.42 distance=1.42 energy=-495.93695137 stress_kbar_3x3="_JSON [[-12.3661887, 0.00012606, -6.469e-05], [0.00012605, -12.34297838, -3.72551658], [-6.47e-05, -3.7255166, -22.64031989]]" pbc="T T T"
Ti       2.93448033       0.10040301      -0.00674593       0.00015209      -0.00456076       0.00570301
Ti       2.93598685       2.93366597      -0.00939925      -0.00109261      -0.00507018      -0.00556828
Ti       0.00158317       0.10042257      -0.00676957      -0.00021233      -0.00470937       0.00574843
Ti       0.00003616       2.93365685      -0.00940349       0.00109708      -0.00496501      -0.00555769
Ti       4.40401719       5.03022344       1.41120122      -0.00004844      -0.00769811      -0.00826619
Ti       1.46800133       5.02969141       1.41097119       0.00005586      -0.00493635      -0.00468083
Ti       4.40401911       1.32010516       2.02964748      -0.00008851       0.01143605      -0.00281446
Ti       1.46801070       1.32231052       2.02994272       0.00007037       0.00749834       0.00540683
Ti       2.93587218       3.41635979       3.21628093       0.00090014       0.01273431       0.00634189
Ti       0.00016179       3.41635581       3.21627713      -0.00096861       0.01274962       0.00641609
Ti       2.93598075       6.23510689       3.62376671      -0.00173665       0.00894694      -0.00053106
Ti       0.00006860       6.23509931       3.62375726       0.00171245       0.00897530      -0.00045805
Ti       1.46802029       1.50849315       4.85207032      -0.00002987       0.00766393       0.00574714
Ti       4.40401747       1.50678398       4.85147474       0.00002484       0.00481366       0.00522737
Ti       1.46802143       4.46083683       5.45933675      -0.00002219       0.00713037       0.00657754
Ti       4.40401508       4.46070473       5.45383154       0.00004760       0.00634766      -0.00067574
Ti       2.93474819       6.62373329       6.61874834      -0.00445746      -0.00067043      -0.00475112
Ti       0.00128197       6.62373163       6.61875139       0.00448893      -0.00068100      -0.00480486
Ti       2.93492864       2.55836232       7.12698843      -0.00009699       0.00096095      -0.00505682
Ti       0.00110328       2.55835096       7.12699870      -0.00002500       0.00104463      -0.00524532
Ti       4.40402470       4.72980658       8.29436323      -0.00003501      -0.00706584      -0.00645245
Ti       1.46801183       4.72835329       8.30428813       0.00003925       0.00283888      -0.00638353
Ti       4.40401319       0.76255126       8.88821882       0.00000451       0.00367431      -0.01056964
Ti       1.46800754       0.76481053       8.90363415       0.00004571       0.00005161       0.00416927
Ti      -0.00726102       2.93106318      10.08731168      -0.00085472       0.01054419      -0.00614898
Ti       2.94328298       2.93106844      10.08729984       0.00084254       0.01051032      -0.00612128
Ti      -0.00205707       5.77114734      10.56377485      -0.00323087      -0.00329575       0.00427157
Ti       2.93808233       5.77114593      10.56377765       0.00323333      -0.00329701       0.00424490
Ti       1.46801572       0.99018497      11.74861361       0.00003664       0.01032925       0.01221912
Ti       4.40399027       1.00539164      11.72422529       0.00001784       0.00386138      -0.01144088
Ti       1.46799851       4.07749453      12.28644004       0.00002685      -0.00477333       0.00540112
Ti       4.40400825       4.06168645      12.34506415       0.00003110       0.00657454      -0.01266653
Ti       2.99128435       2.18151092      13.84701181      -0.00087059       0.00005662      -0.00208762
Ti       5.81674363       2.18146576      13.84699489       0.00086797       0.00010823      -0.00205962
Ti       2.94750346       6.17324042      13.68476921       0.00439992       0.00667026      -0.00340499
Ti       5.86047798       6.17324474      13.68477811      -0.00436253       0.00666310      -0.00340722
V        4.40405724       4.16629283      15.13572678      -0.00008672       0.01087469      -0.00315265
Ti       1.46794820       4.15154511      15.08279444      -0.00001970      -0.00925824      -0.00026617
Ti       4.40399142       0.80804293      15.74611443      -0.00001563      -0.00352650       0.00262575
Ti       1.46804378       0.81145078      15.71076699      -0.00000994       0.00436448      -0.00089476
Ti       2.95561508       5.63973206      16.87617073      -0.00400257      -0.00304424       0.00753533
Ti       5.85239932       5.63975437      16.87620668       0.00409701      -0.00306834       0.00728830
Ti       2.95245782       2.83292177      17.21296942      -0.00236990      -0.00441808      -0.00141742
Ti       5.85558379       2.83290817      17.21298197       0.00236582      -0.00425195      -0.00136559
Ti       4.40401205       0.69480986      18.51107912      -0.00003509      -0.00942538       0.01726807
Ti       1.46801983       0.70547172      18.49415066       0.00006226      -0.00481821      -0.01537146
Ti       4.40402732       4.61358821      19.10671897      -0.00003642      -0.00182971       0.01094405
Ti       1.46801055       4.61661766      19.08885194       0.00003476       0.00121347      -0.00210143
Ti       0.00366071       2.47973927      20.25765906      -0.00404441      -0.00354458       0.00080020
Ti       2.93238393       2.47974290      20.25765522       0.00397126      -0.00359744       0.00080497
Ti       0.00309106       6.55677931      20.76378730       0.00046678      -0.00579528       0.00819291
Ti       2.93293555       6.55677476      20.76378150      -0.00040539      -0.00577288       0.00821925
Ti       1.46802591       4.40920504      21.92116427       0.00001016      -0.00983534      -0.00258207
Ti       4.40403204       4.40830321      21.93131090      -0.00002564       0.00003021       0.00145564
Ti       1.46800354       1.46659064      22.53681256       0.00007631      -0.00141243       0.00073666
Ti       4.40400811       1.46435857      22.53554683       0.00001152      -0.00098812       0.00163864
Ti       2.93582047       6.20711391      23.75510549      -0.00322714      -0.00380982      -0.00118149
Ti       0.00021214       6.20712374      23.75511766       0.00326347      -0.00386280      -0.00119226
Ti       2.93575652       3.39680233      24.17272379      -0.00478891      -0.00832480       0.00300652
Ti       0.00029137       3.39679978      24.17271642       0.00481254      -0.00830868       0.00303608
Ti       4.40401282       1.30281148      25.35260579      -0.00003208      -0.00779706       0.00699101
Ti       1.46804389       1.30544349      25.35205918       0.00000142      -0.01185267       0.00410045
Ti       4.40401314       5.02319852      25.97655154      -0.00004364      -0.00029330      -0.00734839
Ti       1.46801970       5.02310657      25.97731830       0.00000724       0.00189171      -0.00609125
