64
Lattice="5.871999 0.0 0.0 0.0 6.890708 0.0 0.0 0.0 27.401158" Properties=species:S:1:pos:R:3:forces:R:3 job_name=T1m-Zn-Zn-33-d-0.00 GB_type=T1m element=Zn system=Zn-33-d-0.00 distance=0.0 energy=-488.968021 stress_kbar_3x3="_JSON [[-10.69398234, 0.00068851, 0.00039329], [0.00068851, -13.49179486, -0.00539253], [0.00039326, -0.00539252, -22.00569578]]" pbc="T T T"
Ti       2.93602545       0.10383182       0.00006725       0.00001712      -0.00602991      -0.00169983
Ti       2.93602303       2.94289141       0.00003251       0.00002707      -0.00360637      -0.00144311
Ti       0.00002467       0.10228349       0.00006395       0.00003013      -0.00350445      -0.00176360
Ti       0.00003230       2.93929817       0.00005192      -0.00000006      -0.00133087      -0.00151653
Ti       4.40306630       5.02933264       1.41354705       0.00024282       0.00376641       0.00567105
Ti       1.46899733       5.02934163       1.41354840      -0.00022970       0.00374169       0.00566892
Ti       4.40758204       1.32043632       2.02972238       0.00005800       0.00013148       0.01017586
Ti       1.46446329       1.32043635       2.02970462      -0.00014097       0.00011540       0.01030432
Ti       2.93603193       3.41048685       3.20471408      -0.00010447       0.00015260       0.01627921
Ti       0.00002239       3.41348065       3.20901833       0.00003299      -0.00146696       0.01000324
Ti       2.93601812       6.23265504       3.62830835       0.00004282       0.00305460       0.00746743
Ti       0.00002368       6.23144203       3.62211939       0.00001310       0.00225093       0.01326460
Ti       1.46963567       1.49796379       4.84975329       0.00014119       0.00391244       0.00946103
Ti       4.40240859       1.49797851       4.84974475      -0.00015565       0.00383300       0.00953270
Ti       1.46927733       4.44052564       5.44957369       0.00255976       0.00241324       0.00795468
Ti       4.40276439       4.44053078       5.44957022      -0.00253625       0.00241796       0.00795882
Ti       2.93600726       6.59604646       6.61238739       0.00004226       0.00052452       0.00235700
Ti       0.00001387       6.59712671       6.60349807      -0.00000414       0.01009902       0.00205373
Ti       2.93602394       2.52684743       7.13025498      -0.00002965       0.00637009      -0.00087764
Ti       0.00000955       2.53191889       7.12118911       0.00005925       0.00174304       0.00017794
Ti       4.41301910       4.69719279       8.28817832      -0.00391158      -0.00006963      -0.00433356
Ti       1.45899114       4.69718372       8.28819836       0.00393247      -0.00001634      -0.00447256
Ti       4.40466816       0.72915156       8.89352826      -0.00276116       0.00518363      -0.00546319
Ti       1.46735821       0.72914906       8.89354344       0.00271267       0.00514705      -0.00552502
Ti       0.00000298       2.90766647      10.04762090      -0.00003021      -0.00590488      -0.00063143
Ti       2.93597811       2.87444038      10.10848399       0.00008995      -0.01548225      -0.00499778
Ti       0.00001174       5.74901683      10.59024389      -0.00000041      -0.00316651      -0.00902833
Ti       2.93599356       5.69777200      10.52988282       0.00004147       0.00031323      -0.00175211
Ti       1.45186523       0.92843422      11.72421087       0.00646185      -0.00161248       0.00292219
Ti       4.42012343       0.92844067      11.72420732      -0.00648316      -0.00166550       0.00290449
Ti       1.43976882       4.04150430      12.29704629      -0.00270114      -0.01237560       0.01480950
Ti       4.43221906       4.04150927      12.29704490       0.00270914      -0.01237325       0.01483861
Ti       2.93598305       2.02269533      13.70084238       0.00005962       0.00112392       0.00056266
Zn       0.00000008       2.14313849      13.70077130      -0.00007377       0.01144810       0.00093539
Ti       2.93597954       6.08300061      13.70076303       0.00011189       0.00304862       0.00084077
Ti       5.87198163       6.19198909      13.70077105       0.00001759      -0.00333456       0.00048369
Ti       4.43227016       4.04161324      15.10465767       0.00250446      -0.01252359      -0.01364083
Ti       1.43972409       4.04161620      15.10462883      -0.00248942      -0.01254947      -0.01353941
Ti       4.42017437       0.92841229      15.67757644      -0.00683378      -0.00125100      -0.00355453
Ti       1.45182241       0.92842033      15.67754848       0.00684730      -0.00127540      -0.00344150
Ti       2.93600851       5.69790224      16.87230943       0.00000496       0.00007230      -0.00038011
Ti       0.00002287       5.74922614      16.81177883       0.00000365      -0.00370846       0.00769159
Ti       2.93599214       2.87435432      17.29344089       0.00003055      -0.01478854       0.00275489
Ti       0.00000550       2.90767347      17.35438430       0.00000546      -0.00599949      -0.00230571
Ti       4.40465463       0.72926916      18.50836446      -0.00252158       0.00515563       0.00272158
Ti       1.46737982       0.72927192      18.50835886       0.00256582       0.00511978       0.00262509
Ti       4.41308067       4.69718501      19.11355056      -0.00393707      -0.00025582       0.00156494
Ti       1.45896405       4.69718770      19.11356290       0.00391083      -0.00018604       0.00152418
Ti       0.00004367       2.53189859      20.28013458      -0.00026360       0.00227233      -0.00112035
Ti       2.93602313       2.52682566      20.27100539       0.00003895       0.00700425       0.00007618
Ti       0.00003314       6.59712685      20.79740925      -0.00005256       0.01002820      -0.00129500
Ti       2.93601088       6.59603811      20.78846615       0.00006758       0.00052665      -0.00142180
Ti       1.46932368       4.44068543      21.95084905       0.00253234       0.00184422      -0.00492998
Ti       4.40276050       4.44067923      21.95085471      -0.00254593       0.00190934      -0.00498656
Ti       1.46964958       1.49781977      22.55047314       0.00019827       0.00423827      -0.00550571
Ti       4.40237520       1.49781930      22.55046144      -0.00012545       0.00413943      -0.00552586
Ti       2.93603729       6.23265274      23.77184903      -0.00002290       0.00279276      -0.00412284
Ti       0.00003738       6.23144433      23.77803945       0.00000677       0.00194635      -0.00976976
Ti       2.93602456       3.41039215      24.19530702       0.00000034       0.00014504      -0.01352618
Ti       0.00003278       3.41339294      24.19095222      -0.00008836      -0.00125290      -0.00735583
Ti       4.40757696       1.32050691      25.37094096       0.00006911      -0.00007057      -0.00959801
Ti       1.46449054       1.32050715      25.37096084      -0.00021580      -0.00007585      -0.00974689
Ti       4.40306064       5.02927073      25.98733031       0.00020797       0.00393305      -0.00815952
Ti       1.46898733       5.02926137      25.98733800      -0.00013875       0.00395812      -0.00815520
