64
Lattice="5.871999 0.0 0.0 0.0 6.890708 0.0 0.0 0.0 27.401158" Properties=species:S:1:pos:R:3:forces:R:3 job_name=T1m-Zn-Zn-36-d-1.42 GB_type=T1m element=Zn system=Zn-36-d-1.42 distance=1.42 energy=-488.80844072 stress_kbar_3x3="_JSON [[-11.30366474, 0.00155773, 5.086e-05], [0.00155776, -15.59922521, 0.55137012], [5.089e-05, 0.5513701, -18.33570701]]" pbc="T T T"
Ti       2.94173597       0.10584733      27.39673610       0.00155218       0.00179629      -0.00301372
Ti       2.93673879       2.94057269       0.00470125      -0.00077445       0.00111796      -0.00042543
Ti       5.86627580       0.10588825      27.39677924      -0.00147423       0.00178272      -0.00316408
Ti       5.87131776       2.94055169       0.00471260       0.00078583       0.00104871      -0.00050638
Ti       4.40400431       5.03271525       1.41706382      -0.00001785      -0.00009091      -0.00480627
Ti       1.46797837       5.03585905       1.41513646       0.00004921      -0.00401302       0.00008220
Ti       4.40402276       1.31646232       2.03132257       0.00000527       0.00424858      -0.00037454
Ti       1.46804473       1.31486877       2.03377547      -0.00007897       0.00409924       0.00179689
Ti       2.93226136       3.41140287       3.21163840      -0.00337337      -0.00553396       0.00331879
Ti       0.00374304       3.41143866       3.21162426       0.00338304      -0.00563091       0.00330438
Ti       2.93369598       6.23067410       3.62691940      -0.00165712      -0.00042691       0.00534534
Ti       0.00235831       6.23064110       3.62694041       0.00162004      -0.00043595       0.00527397
Ti       1.46802727       1.49668609       4.85079642      -0.00002762       0.00300757      -0.00241188
Ti       4.40401149       1.49394952       4.84365539      -0.00000562       0.00270051       0.00372162
Ti       1.46796714       4.43888592       5.45535341       0.00011330      -0.00714856       0.00033777
Ti       4.40400130       4.43940898       5.43886726      -0.00002930      -0.00296726       0.00270409
Ti       2.94013951       6.59404120       6.60091633       0.00131210       0.00099090       0.00374985
Ti       5.86789771       6.59414856       6.60084873      -0.00137255       0.00085342       0.00397218
Ti       2.93842014       2.52594944       7.11395276       0.00081279      -0.00239819      -0.00208033
Ti       5.86957363       2.52593288       7.11396875      -0.00072535      -0.00245561      -0.00199737
Ti       4.40401741       4.69122333       8.26737390       0.00000240       0.00366252      -0.00459379
Ti       1.46799094       4.67903041       8.29475505       0.00003773       0.00356312       0.00215437
Ti       4.40400778       0.71765698       8.88377667       0.00004698      -0.00537089      -0.01054448
Ti       1.46799385       0.73059262       8.84872440      -0.00003449      -0.00615054      -0.00105905
Ti       5.85061395       2.86559040      10.07342784       0.00431517       0.00817932      -0.00116912
Ti       2.95738344       2.86559960      10.07344358      -0.00432324       0.00817036      -0.00122971
Ti       5.82917908       5.71343325      10.51090223       0.01009722      -0.00897255      -0.00199238
Ti       2.97883211       5.71343899      10.51091486      -0.01012628      -0.00908043      -0.00208185
Ti       1.46800777       0.88526537      11.68416041      -0.00003407      -0.00274753       0.00053900
Ti       4.40398214       0.96160069      11.74765411       0.00006720       0.00785929       0.01472510
Ti       1.46800896       4.05121171      12.21439964       0.00000135       0.00137119      -0.00175641
Ti       4.40398300       4.02360515      12.30036943       0.00004446      -0.00043234       0.00175738
Ti       2.88309774       2.13290880      13.72170220      -0.00567590       0.01518778      -0.00681340
Ti       0.05291307       2.13288645      13.72170333       0.00567762       0.01520554      -0.00679124
Ti       2.92061578       6.13698411      13.68938544      -0.00526687      -0.01518480      -0.00210644
Ti       0.01536001       6.13699544      13.68942269       0.00533107      -0.01511330      -0.00220982
Zn       4.40400583       4.06170750      15.12874051       0.00000485       0.00260841      -0.00289676
Ti       1.46800511       4.04928919      15.06478772       0.00005664       0.00573878       0.00592205
Ti       4.40400822       0.92889794      15.71587514       0.00005923      -0.00085582      -0.00417341
Ti       1.46801177       0.85422290      15.74211493      -0.00008965       0.00397178       0.00501479
Ti       2.97579065       5.68124292      16.90137490      -0.01313961      -0.01312712      -0.00035412
Ti       5.83224901       5.68127276      16.90136165       0.01314480      -0.01307737      -0.00031682
Ti       2.93930966       2.88976506      17.31764507      -0.00554449       0.00685179       0.00210096
Ti       5.86871422       2.88977535      17.31764210       0.00556238       0.00666106       0.00208486
Ti       4.40403570       0.74499172      18.49563700       0.00004447       0.00046536       0.01160899
Ti       1.46802473       0.73894005      18.52661119      -0.00006674       0.00030260      -0.00065728
Ti       4.40404911       4.70590838      19.16525124      -0.00009334      -0.00192960       0.00609606
Ti       1.46801369       4.69459494      19.12334720       0.00007217       0.00150321       0.00140012
Ti       0.00095693       2.52437833      20.27703797      -0.00119394       0.00484700      -0.00186524
Ti       2.93513442       2.52439560      20.27703686       0.00119910       0.00491519      -0.00186177
Ti       5.86852040       6.61768720      20.79666800      -0.00176127      -0.00448622      -0.00359993
Ti       2.93953333       6.61767070      20.79667525       0.00176464      -0.00459099      -0.00354739
Ti       1.46808508       4.44986397      21.94034464      -0.00004700      -0.00357889      -0.00286672
Ti       4.40403410       4.45223936      21.96346190      -0.00001758      -0.00250395      -0.00537252
Ti       1.46800620       1.50984280      22.55512489       0.00003396       0.00545806      -0.00122319
Ti       4.40400874       1.50614017      22.55771016       0.00007453       0.00522320      -0.00189988
Ti       2.93416255       6.24132664      23.78188515       0.00006018      -0.00292851       0.00019976
Ti       0.00193247       6.24133279      23.78187080      -0.00023208      -0.00282811       0.00031343
Ti       2.93208446       3.42649267      24.18141100      -0.00341300      -0.00091619      -0.00164477
Ti       0.00395172       3.42648491      24.18142143       0.00335317      -0.00098428      -0.00156048
Ti       4.40403306       1.33182263      25.36895745       0.00007769       0.00306215       0.00389493
Ti       1.46805318       1.33027695      25.37012372      -0.00017082       0.00709275      -0.00090280
Ti       4.40399014       5.02999192      25.98977260       0.00008505       0.00157484       0.00232715
Ti       1.46804665       5.03108933      25.98934070      -0.00008104       0.00083951       0.00212473
