64
Lattice="5.871999 0.0 0.0 0.0 6.890708 0.0 0.0 0.0 27.401158" Properties=species:S:1:pos:R:3:forces:R:3 job_name=T1m-Cu-Cu-44-d-4.84 GB_type=T1m element=Cu system=Cu-44-d-4.84 distance=4.84 energy=-490.96588692 stress_kbar_3x3="_JSON [[-13.50524489, -0.00015471, 0.00022535], [-0.00015476, -16.92423542, 1.15582332], [0.00022538, 1.15582328, -22.20279812]]" pbc="T T T"
Ti       2.92806210       0.11211576      27.38498614      -0.00818387      -0.00219958       0.00585603
Ti       2.93410600       2.94279312      27.38579810      -0.00090272       0.00410154       0.00042069
Ti       0.00798657       0.11213670      27.38497197       0.00821103      -0.00250869       0.00561540
Ti       0.00196601       2.94278645      27.38580318       0.00090239       0.00410814       0.00039000
Ti       4.40404946       5.03378526       1.40206423      -0.00015211      -0.00515849       0.00597582
Ti       1.46802404       5.03419732       1.39761094       0.00010984       0.00207360      -0.00714575
Ti       4.40403633       1.32062681       2.02097405      -0.00018080       0.00242623       0.00418279
Ti       1.46799125       1.31990760       2.02617723       0.00018328      -0.00171695      -0.00117994
Ti       2.93656238       3.41502071       3.20390343       0.00398283      -0.00309439       0.00298401
Ti       5.87148819       3.41501666       3.20388539      -0.00393205      -0.00292077       0.00315285
Ti       2.93503388       6.22758796       3.61519411       0.00097451       0.00335024       0.00194472
Ti       0.00102617       6.22757828       3.61518563      -0.00095599       0.00329271       0.00202825
Ti       1.46803276       1.49245714       4.83963801       0.00004738       0.00153659      -0.00136031
Ti       4.40403858       1.49069375       4.83805884      -0.00005646       0.00162832      -0.00684207
Ti       1.46801926       4.44043807       5.44809653      -0.00001699       0.00046417       0.00598578
Ti       4.40402697       4.44005908       5.44335209       0.00000847      -0.00258666      -0.00271765
Ti       2.93295093       6.59674049       6.61290317      -0.00242208      -0.00074377      -0.00412339
Ti       0.00308936       6.59674581       6.61289690       0.00240037      -0.00075168      -0.00410162
Ti       2.93362012       2.51754530       7.11262273      -0.00261689       0.00019897      -0.00489098
Ti       0.00241828       2.51754461       7.11263186       0.00260957       0.00021823      -0.00481028
Ti       4.40400115       4.67086567       8.26975060       0.00005449      -0.00029754       0.00312390
Ti       1.46801111       4.67564114       8.27877630      -0.00002561      -0.00153085      -0.00241546
Ti       4.40400347       0.73636985       8.86923486       0.00004390      -0.00117088       0.01000509
Ti       1.46800527       0.73129895       8.89862140      -0.00003455       0.00003524      -0.00033738
Ti       5.86975725       2.88975352      10.10915866      -0.00161413      -0.00321626       0.00949683
Ti       2.93822706       2.88975311      10.10914275       0.00156026      -0.00316236       0.00966193
Ti       0.00936013       5.70285271      10.50591711      -0.00346311       0.00420674       0.00972630
Ti       2.92664456       5.70286015      10.50591777       0.00344637       0.00419945       0.00975530
Ti       1.46799034       0.90666103      11.72954080       0.00001988       0.00134499       0.00214820
Ti       4.40399468       0.89373526      11.67192542      -0.00003061      -0.00632265      -0.01597842
Ti       1.46799872       4.08489494      12.30236878       0.00006310      -0.00193613       0.00062445
Ti       4.40399994       4.10424699      12.33139945      -0.00006885       0.00408944       0.00532638
Ti       3.00939287       2.12781434      13.72434530      -0.00099124       0.00517637      -0.00514319
Ti       5.79860309       2.12781696      13.72432438       0.00094699       0.00504830      -0.00507689
Ti       2.96164581       6.17070119      13.73396295       0.00161524      -0.00503689      -0.00735161
Ti       5.84633715       6.17070154      13.73397574      -0.00161835      -0.00495180      -0.00735158
Ti       4.40401442       4.06336949      15.20804000      -0.00013232      -0.00090854       0.00060243
Ti       1.46796470       4.09473712      15.14690456       0.00013977      -0.00409865      -0.00612864
Ti       4.40400199       0.92857595      15.82738092      -0.00002014       0.00080736       0.00074377
Ti       1.46799005       0.92883994      15.66825545       0.00004095       0.00659789      -0.00474084
Ti       2.88536084       5.73811398      16.92759270       0.00551178       0.00441490       0.00172680
Ti       0.05066137       5.73811761      16.92759258      -0.00549582       0.00456618       0.00174790
Ti       2.95039846       2.85330434      17.33986788       0.00490874      -0.00186428      -0.00466864
Ti       5.85760263       2.85331499      17.33986568      -0.00491099      -0.00192804      -0.00464429
Cu       4.40403048       0.69782938      18.57137016      -0.00003521      -0.00460557      -0.00026996
Ti       1.46801675       0.66116739      18.47155966      -0.00001543      -0.00479346      -0.00765594
Ti       4.40402078       4.72954317      19.11229437      -0.00007335      -0.00568916      -0.01149121
Ti       1.46803415       4.61456279      19.14780338       0.00003779      -0.00190479       0.01942751
Ti       5.82388891       2.49553760      20.26616384       0.00328763       0.00232846       0.00189725
Ti       2.98415444       2.49552195      20.26618223      -0.00322611       0.00253370       0.00169662
Ti       5.85743640       6.59983812      20.76291354       0.00273710       0.00134035      -0.00116207
Ti       2.95061896       6.59986639      20.76293790      -0.00275606       0.00120334      -0.00126191
Ti       1.46802873       4.44416849      21.94181354      -0.00002578       0.00078869      -0.01488584
Ti       4.40399767       4.45619589      21.88627792       0.00005518      -0.00298729       0.00882058
Ti       1.46802964       1.50653374      22.51425138      -0.00001025       0.00211200      -0.01258398
Ti       4.40400587       1.50899305      22.55650436       0.00011110      -0.00083447       0.00726957
Ti       2.93718500       6.22550050      23.74242511       0.00496215       0.00104493      -0.00121611
Ti      -0.00111931       6.22553126      23.74244182      -0.00503469       0.00102120      -0.00137416
Ti       2.94039441       3.42423927      24.16869678       0.00973792      -0.00201049       0.00127813
Ti       5.86762493       3.42422432      24.16867907      -0.00967861      -0.00196079       0.00127473
Ti       4.40400323       1.32108462      25.35598533      -0.00004821       0.00677247      -0.01643230
Ti       1.46803517       1.31691963      25.33200261       0.00005018      -0.00189485       0.00996757
Ti       4.40402643       5.03976471      25.97473682      -0.00006461      -0.00225362      -0.00040489
Ti       1.46804615       5.03845268      25.96371561       0.00003379       0.00400958       0.01488972
