64
Lattice="5.871999 0.0 0.0 0.0 6.890708 0.0 0.0 0.0 27.401158" Properties=species:S:1:pos:R:3:forces:R:3 job_name=T1m-V-V-37-d-1.42 GB_type=T1m element=V system=V-37-d-1.42 distance=1.42 energy=-495.9368253 stress_kbar_3x3="_JSON [[-12.54993618, 0.0014526, 0.00066764], [0.00145262, -12.48058523, -3.35951398], [0.00066764, -3.35951399, -22.59961654]]" pbc="T T T"
Ti       2.93803081       0.09900025      -0.00015281      -0.00046254      -0.00390418      -0.00208772
Ti       2.93628547       2.93175069      27.38423313       0.00065528       0.00402403      -0.00454131
Ti       5.86998206       0.09902267      -0.00010443       0.00051674      -0.00433744      -0.00214930
Ti       5.87179750       2.93179668      27.38425497      -0.00065061       0.00418946      -0.00476512
Ti       4.40404738       5.02782278       1.41119317      -0.00012210      -0.00832718      -0.01737741
Ti       1.46801344       5.02737066       1.40953337       0.00012539      -0.00737225      -0.01851723
Ti       4.40403453       1.33182409       2.02965152      -0.00015543       0.00857027       0.00370487
Ti       1.46801961       1.32979403       2.02711506       0.00016406       0.00774287       0.00275167
Ti       2.93574901       3.42424285       3.22307608       0.00086159      -0.00194628       0.00298330
Ti       0.00028447       3.42423495       3.22308512      -0.00087657      -0.00218291       0.00304814
Ti       2.93645845       6.24077100       3.61921151      -0.00009242       0.00619006       0.00761774
Ti       5.87161555       6.24078856       3.61918281      -0.00005676       0.00631260       0.00787760
Ti       1.46799392       1.51027603       4.85042676      -0.00008868      -0.00102155       0.01291441
Ti       4.40401857       1.51358214       4.85107285       0.00016914       0.00004694       0.01137694
Ti       1.46795971       4.46513415       5.45323498       0.00031680       0.00708935       0.01077063
Ti       4.40406567       4.46491392       5.45931565      -0.00021495       0.00629499       0.01147229
Ti       2.93892400       6.62543199       6.61613257      -0.00144617       0.00443687       0.00649676
Ti       5.86911301       6.62543251       6.61608022       0.00134432       0.00473963       0.00661554
Ti       2.93792300       2.55810154       7.12541190       0.00041964       0.00358051      -0.00306023
Ti       5.87008465       2.55799541       7.12535047      -0.00051328       0.00358096      -0.00307297
Ti       4.40398419       4.72771066       8.30371841      -0.00021166       0.00772770      -0.00589871
Ti       1.46798753       4.72584848       8.29312519       0.00028535       0.00808349      -0.00786591
Ti       4.40400193       0.76559901       8.90871831       0.00018897      -0.00249888      -0.00741401
Ti       1.46798276       0.76355602       8.88561507      -0.00008778      -0.00407524      -0.00986991
Ti       0.00717387       2.93205346      10.08578644      -0.00267079       0.00068310      -0.00924836
Ti       2.92879741       2.93209317      10.08582014       0.00269304       0.00108399      -0.00941678
Ti       0.00107114       5.76960251      10.56321378      -0.00217301       0.00691609      -0.00587806
Ti       2.93495885       5.76961987      10.56319618       0.00211129       0.00637126      -0.00587361
Ti       1.46791754       1.00440048      11.71555834      -0.00023821      -0.00019706      -0.00506815
Ti       4.40407323       0.99120632      11.75064698       0.00019508      -0.00019543      -0.00708281
Ti       1.46801921       4.06047438      12.33677941       0.00023185       0.00480307       0.01514565
Ti       4.40398591       4.07601033      12.28411837      -0.00027776       0.00723998       0.00383057
Ti       2.87609595       2.17960688      13.84265155      -0.00062682       0.00454471       0.00813935
Ti       0.05987704       2.17973986      13.84267299       0.00060013       0.00457569       0.00820602
Ti       2.92259923       6.17342052      13.68376418      -0.00162026      -0.00219498       0.00362138
Ti       0.01343395       6.17341513      13.68379389       0.00158323      -0.00239202       0.00337461
Ti       4.40359079       4.14572129      15.08406357       0.00007461       0.00282325       0.00815991
V        1.46848501       4.16809388      15.13354922       0.00009188       0.00025154      -0.00259458
Ti       4.40416292       0.81492663      15.70927059      -0.00005523       0.00266655      -0.00488433
Ti       1.46779433       0.80875317      15.75154399       0.00006225      -0.00699501       0.00332745
Ti       2.91793783       5.63941760      16.87944603      -0.00322620      -0.00115090      -0.00601856
Ti       0.01814234       5.63915469      16.87939627       0.00320480      -0.00122306      -0.00602520
Ti       2.91983417       2.83349000      17.21788384       0.00032782      -0.00437073      -0.00887733
Ti       0.01618783       2.83349263      17.21779457      -0.00046913      -0.00395696      -0.00892572
Ti       4.40405543       0.70415277      18.49372951      -0.00016666      -0.00132207      -0.00170594
Ti       1.46795787       0.69190942      18.51927928       0.00018321      -0.00270643      -0.00937403
Ti       4.40392002       4.61827138      19.09081816       0.00028017      -0.00417871       0.00288785
Ti       1.46808017       4.61478136      19.11378067      -0.00014656      -0.00134042      -0.00368854
Ti       5.86796463       2.47939049      20.26042884      -0.00258764      -0.00482344       0.00091138
Ti       2.94008025       2.47929465      20.26041738       0.00258595      -0.00477938       0.00095773
Ti       5.86805375       6.55531246      20.76940744      -0.00048449      -0.00395644      -0.00115141
Ti       2.94000190       6.55528004      20.76934677       0.00042886      -0.00369854      -0.00111617
Ti       1.46806275       4.40554009      21.93630502      -0.00022251      -0.00665439      -0.00244907
Ti       4.40400259       4.40493308      21.92220718       0.00016645      -0.00543648      -0.00657015
Ti       1.46804270       1.46252414      22.53555063      -0.00000112      -0.00328809       0.00337887
Ti       4.40402952       1.46604448      22.53661900      -0.00003727      -0.00205140       0.00035295
Ti       2.93754935       6.20274041      23.75036410      -0.00007443       0.00155204       0.00276730
Ti       5.87050460       6.20276513      23.75044137       0.00009149       0.00119046       0.00253159
Ti       2.93814205       3.39198886      24.17336948      -0.00101585      -0.00937141       0.00725861
Ti       5.86990000       3.39204823      24.17336343       0.00103133      -0.00905549       0.00724735
Ti       4.40413781       1.29575896      25.35089769      -0.00038399      -0.00195573       0.00614167
Ti       1.46793490       1.29497237      25.35259619       0.00037983      -0.00159767       0.00177258
Ti       4.40408331       5.02605959      25.97574052       0.00001358      -0.00183326       0.00711064
Ti       1.46795410       5.02513082      25.97296113       0.00007275      -0.00092006       0.00781527
