64
Lattice="5.871999 0.0 0.0 0.0 6.890708 0.0 0.0 0.0 27.401158" Properties=species:S:1:pos:R:3:forces:R:3 job_name=T1m-Zr-Zr-49-d-6.60 GB_type=T1m element=Zr system=Zr-49-d-6.60 distance=6.6 energy=-495.67846379 stress_kbar_3x3="_JSON [[-3.16970996, 0.00280233, -8.576e-05], [0.00280233, -2.52361158, -0.44495316], [-8.572e-05, -0.44495316, -10.53931836]]" pbc="T T T"
Ti       2.93595872       0.08588962       0.01708882       0.00008365      -0.00255347      -0.00030528
Ti       2.93602586       2.92600845       0.03081668      -0.00007893       0.00028498       0.00387324
Ti       0.00006453       0.08913495       0.01296022      -0.00000397      -0.00243620       0.00460371
Ti       0.00004703       2.92863092       0.03937795      -0.00004286       0.00044362      -0.00184968
Ti       4.40814065       5.02260785       1.43255261      -0.00237437       0.00266094      -0.00342552
Ti       1.46387839       5.02262671       1.43255886       0.00239202       0.00262180      -0.00338308
Ti       4.40230187       1.31142835       2.04431515      -0.00171604      -0.01203896      -0.01009671
Ti       1.46974709       1.31141856       2.04436820       0.00142506      -0.01178391      -0.01012016
Ti       2.93603575       3.40571501       3.21916406      -0.00008578      -0.00993183      -0.00585076
Ti      -0.00000701       3.40616805       3.22095996       0.00002934      -0.01182273      -0.00759520
Ti       2.93600698       6.22815487       3.63028526       0.00003807      -0.00993888      -0.00636756
Ti       0.00003055       6.22900317       3.63310199       0.00004571      -0.00918895      -0.00808515
Ti       1.46849554       1.49059251       4.84634081      -0.00105224      -0.00671635      -0.00301587
Ti       4.40359298       1.49059405       4.84630725       0.00087461      -0.00668768      -0.00299383
Ti       1.46776081       4.43953254       5.44121934      -0.00098532      -0.00574042       0.00622737
Ti       4.40426620       4.43952943       5.44122527       0.00100095      -0.00583120       0.00614104
Ti       2.93603726       6.59306997       6.59752704      -0.00009096      -0.00542443       0.00415276
Ti      -0.00000135       6.59383006       6.59876345       0.00002840      -0.00798148       0.00491440
Ti       2.93602309       2.52174159       7.09941575      -0.00009077      -0.00031389      -0.00057863
Ti       0.00001529       2.52159263       7.10087049      -0.00002604       0.00206351      -0.00381691
Ti       4.40443465       4.67291760       8.25635967       0.00035021      -0.00194685      -0.00568616
Ti       1.46756193       4.67294497       8.25641463      -0.00041902      -0.00218755      -0.00604081
Ti       4.40329565       0.73385899       8.85180049       0.00174619      -0.00371586       0.00067123
Ti       1.46873205       0.73385884       8.85178455      -0.00186497      -0.00374154       0.00063000
Ti       5.87198583       2.88290284      10.07330780      -0.00002618      -0.00322372       0.00525955
Ti       2.93598110       2.88361727      10.07046799       0.00001884      -0.00110009       0.00830025
Ti       5.87196759       5.70350604      10.47571589      -0.00008165       0.00042395       0.00559881
Ti       2.93599810       5.70033871      10.47617127       0.00007394      -0.00126808       0.00447306
Ti       1.47503429       0.89603026      11.64947011      -0.00283567       0.00039937       0.01009442
Ti       4.39691761       0.89604452      11.64950168       0.00288475       0.00032242       0.01009445
Ti       1.46614454       4.09046556      12.26550367       0.00171958       0.00007985      -0.00512305
Ti       4.40582359       4.09044843      12.26556432      -0.00177088       0.00014908      -0.00536503
Ti       2.93594902       2.12206637      13.67203456      -0.00010262      -0.00889821      -0.00470276
Ti      -0.00000092       2.11985968      13.65739588      -0.00002736      -0.00764212      -0.00721600
Ti       2.93600380       6.17549002      13.68266132      -0.00010473       0.01178666      -0.00484330
Ti       0.00001788       6.17400158      13.68056002       0.00000090       0.01099365       0.00347710
Ti       4.41458791       4.07442296      15.07724873       0.00019951       0.00336397      -0.00074757
Ti       1.45738807       4.07442604      15.07721880       0.00001561       0.00346403      -0.00038284
Ti       4.40398524       0.91309701      15.69149043       0.00238912       0.00797264      -0.00337057
Ti       1.46794241       0.91305329      15.69164718      -0.00224215       0.00845477      -0.00475650
Ti       2.93599633       5.69480260      16.87260890      -0.00015060       0.00387901      -0.00618783
Ti      -0.00000731       5.69621894      16.84882846      -0.00001184       0.01530286      -0.01209942
Ti       2.93603527       2.88689980      17.24813491      -0.00054075       0.00857464       0.00456528
Ti       0.00000737       2.89636562      17.31296310      -0.00012350       0.00938542      -0.00011389
Ti       4.41633042       0.70685029      18.48688425      -0.00598020      -0.00261806      -0.00127489
Ti       1.45563404       0.70658396      18.48674297       0.00686220       0.00046280       0.00127153
Ti       4.44401990       4.73946133      19.10739327      -0.00474111       0.00311623       0.00424983
Ti       1.42794408       4.73984672      19.10720218       0.00587077      -0.00106273       0.00673712
Ti      -0.00031634       2.55491081      20.32233608       0.00523966       0.01414394       0.01273808
Zr       2.93685537       2.54764700      20.31302083      -0.00645211       0.01308784       0.01277199
Ti      -0.00001687       6.64411668      20.81397715       0.00036224       0.00933444      -0.00226203
Ti       2.93603269       6.54992792      20.79712183      -0.00086605       0.00302230      -0.00243571
Ti       1.42426904       4.49314570      22.00227578      -0.00276479      -0.00127993      -0.00992494
Ti       4.44772655       4.49314807      22.00217723       0.00342787      -0.00111386      -0.00891317
Ti       1.43807698       1.46647266      22.63348689       0.00406754       0.00215569      -0.00755574
Ti       4.43397384       1.46650757      22.63319442      -0.00322994       0.00138907      -0.00353213
Ti       2.93603087       6.22928617      23.83069549      -0.00023239      -0.00198218       0.00693824
Ti       0.00004037       6.22434690      23.83324062       0.00019077       0.00275225       0.00378739
Ti       2.93606051       3.40610335      24.19544766      -0.00030092       0.00108013       0.00276307
Ti       0.00002247       3.40835390      24.22430875      -0.00006931       0.00197723       0.01024925
Ti       4.39340930       1.33327794      25.41159426       0.00289813       0.00263190       0.00680136
Ti       1.47861288       1.33328423      25.41139074      -0.00279349       0.00246358       0.00838475
Ti       4.40534528       5.00369579      26.01908792      -0.00175312       0.00012921       0.00506962
Ti       1.46670686       5.00371840      26.01908815       0.00179703      -0.00020260       0.00517978
