64
Lattice="5.871999 0.0 0.0 0.0 6.890708 0.0 0.0 0.0 27.401158" Properties=species:S:1:pos:R:3:forces:R:3 job_name=T1m-Zr-Zr-43-d-3.62 GB_type=T1m element=Zr system=Zr-43-d-3.62 distance=3.62 energy=-495.8697499 stress_kbar_3x3="_JSON [[-2.8302366, 0.01643151, 0.00504838], [0.01643152, -3.21347889, -1.41196427], [0.0050484, -1.41196427, -9.78915766]]" pbc="T T T"
Ti       2.93618723       0.01264196       0.20310444      -0.00001039      -0.00010931       0.00079532
Ti       2.93615620       2.83878318      27.26085369      -0.00000404      -0.00526993      -0.00708260
Ti       0.00017170       0.01370956       0.20427007       0.00006980      -0.00025430       0.00139490
Ti       0.00015233       2.83854055      27.25649982       0.00001926      -0.00517349      -0.00709073
Ti       4.40439246       4.83788112       1.40894843       0.00004592      -0.00977216       0.00422917
Ti       1.46801923       4.83792612       1.40892127       0.00004689      -0.00992811       0.00461375
Ti       4.40429757       1.55836278       2.02146993      -0.00021476       0.00458679       0.00437434
Ti       1.46794310       1.55837165       2.02142613       0.00032377       0.00446127       0.00438000
Ti       2.93620283       3.54042861       3.37537496      -0.00006369      -0.00079918       0.01162070
Ti       0.00017240       3.54049017       3.37544384       0.00000966      -0.00070543       0.01155399
Ti       2.93613890       6.37997212       3.45966083       0.00003087       0.00273619       0.00053508
Ti       0.00014248       6.37978583       3.45958847       0.00001788       0.00255825       0.00055746
Ti       1.46792609       1.59160776       4.83101401       0.00017032      -0.00100676       0.00035778
Ti       4.40440899       1.59158002       4.83105641      -0.00022279      -0.00093606       0.00020103
Ti       1.46796259       4.70680722       5.43649527      -0.00014227       0.00515040      -0.00195017
Ti       4.40438672       4.70681457       5.43648421       0.00016183       0.00516667      -0.00162644
Ti       2.93614945       6.81322472       6.59472764       0.00003589       0.00735490       0.00069160
Ti       0.00020347       6.81432078       6.59358592      -0.00017012       0.00860688       0.00061791
Ti       2.93616588       2.74345768       7.04275853       0.00006393       0.00510636      -0.00528476
Ti       0.00019417       2.74322667       7.04587867      -0.00007748       0.00478722      -0.00378196
Ti       4.40527411       4.90365477       8.24067329       0.00023969       0.00681835       0.00112317
Ti       1.46709379       4.90368316       8.24061789      -0.00039013       0.00676683       0.00143228
Ti       4.40588886       0.94209858       8.83525732       0.00053085       0.00678292       0.00515560
Ti       1.46652238       0.94211179       8.83532039      -0.00069653       0.00670619       0.00487304
Ti       0.00017410       3.10718038       9.99581413      -0.00013643       0.00332067       0.00074374
Ti       2.93614446       3.10465702       9.98771502       0.00005698       0.00322707      -0.00042862
Ti       0.00016527       5.92461480      10.50025839       0.00011943       0.01423859       0.00123205
Ti       2.93619480       5.92648350      10.49542684      -0.00015153       0.01369436      -0.00044483
Ti       1.47390816       1.20189059      11.65706774      -0.00015799       0.00231472      -0.00014565
Ti       4.39835613       1.20185013      11.65702425       0.00030917       0.00240617      -0.00053864
Ti       1.47008077       4.13787622      12.24786435      -0.00162039       0.00586034       0.00018419
Ti       4.40206911       4.13791057      12.24768368       0.00139216       0.00548492       0.00059093
Ti       2.93629537       2.23202259      13.91278634      -0.00064829      -0.00645065       0.00894291
Ti       0.00002145       2.23544860      13.87282423       0.00039383      -0.00681432      -0.00095279
Ti       2.93581992       6.30838975      13.44235139      -0.00028693       0.00700823       0.00445131
Ti      -0.00015246       6.31042852      13.46457901      -0.00059735       0.00181380      -0.00199504
Ti       4.40328652       4.36679258      15.04042088      -0.00605104       0.00654866       0.00463379
Ti       1.46844564       4.36650951      15.04059402       0.00617143       0.00724442       0.00556974
Ti       4.35314622       0.55202073      15.66610021      -0.00628464      -0.01002498       0.00618744
Ti       1.51798489       0.55217760      15.66605261       0.00608829      -0.01094196       0.00696378
Ti       2.93642789       5.48683085      17.11777905      -0.00045535       0.01892012      -0.00113296
Ti       0.00005169       5.59168781      17.11354334      -0.00027020       0.01811466       0.00064986
Ti       2.93384698       2.66245248      17.13146782       0.00080692      -0.00417018      -0.00246977
Zr       5.86968340       2.68273585      17.14032619       0.00251456       0.00390448      -0.00591614
Ti       4.35648330       0.55983835      18.58538754      -0.00716396      -0.00978134      -0.00562917
Ti       1.51458914       0.55993148      18.58547951       0.00708591      -0.01020810      -0.00618285
Ti       4.40761573       4.43249942      19.21638554      -0.00578062      -0.00015025      -0.00468187
Ti       1.46425522       4.43223145      19.21619627       0.00590879       0.00040898      -0.00563255
Ti       0.00005786       2.29759486      20.36626499       0.00045055      -0.01457037       0.00483647
Ti       2.93628761       2.29474283      20.31594968      -0.00053175      -0.01353256      -0.00589246
Ti      -0.00015144       6.38473666      20.80705973      -0.00020707      -0.00598150       0.00358738
Ti       2.93584742       6.38329953      20.82672765      -0.00033674       0.00126727      -0.00550286
Ti       1.47110828       4.21849438      22.00457659      -0.00151624      -0.00532341       0.00575891
Ti       4.40100830       4.21852548      22.00476637       0.00155377      -0.00565200       0.00538330
Ti       1.47512535       1.30162022      22.59490047      -0.00037085      -0.01067944       0.00651761
Ti       4.39722055       1.30152608      22.59488544       0.00030776      -0.01023475       0.00698854
Ti       2.93619854       6.03102577      23.76409884      -0.00016810       0.00200333      -0.00012014
Ti       0.00019403       6.02932593      23.75976056       0.00009330       0.00277740      -0.00117520
Ti       2.93612575       3.21379698      24.26753498       0.00004859      -0.01024370      -0.00296148
Ti       0.00017890       3.21575670      24.25747099      -0.00014717      -0.01103877      -0.00388362
Ti       4.40584512       1.06775563      25.41328225       0.00065997      -0.00573163      -0.01531904
Ti       1.46652046       1.06776042      25.41330380      -0.00081593      -0.00565491      -0.01530293
Ti       4.40519299       4.98283480      26.01291999      -0.00009936      -0.00349846      -0.00912678
Ti       1.46715510       4.98285417      26.01299388       0.00006213      -0.00350938      -0.00947704
