64
Lattice="5.871999 0.0 0.0 0.0 6.890708 0.0 0.0 0.0 27.401158" Properties=species:S:1:pos:R:3:forces:R:3 job_name=T1m-Cu-Cu-49-d-6.60 GB_type=T1m element=Cu system=Cu-49-d-6.60 distance=6.6 energy=-491.02349 stress_kbar_3x3="_JSON [[-14.17060146, -0.00025053, -0.00011269], [-0.00025055, -15.96558374, -2.89367168], [-0.00011265, -2.8936717, -23.37836408]]" pbc="T T T"
Ti       2.93602445       0.11375893      -0.00213490      -0.00009125      -0.00921376      -0.00545975
Ti       2.93603301       2.94648470      27.35483050      -0.00004891       0.00061423      -0.00442917
Ti       0.00002824       0.11030716      27.39076755       0.00009127      -0.01125617      -0.00470019
Ti       0.00003312       2.94497496      27.33851346      -0.00001610       0.00089225      -0.00484641
Ti       4.40043765       5.02769837       1.38704912       0.00038989       0.00483621      -0.00644984
Ti       1.47160953       5.02769227       1.38694351      -0.00038044       0.00487647      -0.00590751
Ti       4.40608623       1.35522464       2.00247234       0.00029487      -0.00038336       0.00136652
Ti       1.46592239       1.35524589       2.00242179      -0.00019904      -0.00042631       0.00141504
Ti       2.93608817       3.43911187       3.20499507      -0.00017552       0.00053289       0.00809207
Ti      -0.00005788       3.43771030       3.20122340       0.00024593       0.00044987       0.00826540
Ti       2.93604906       6.25438050       3.59041166      -0.00011634       0.00241863       0.00258348
Ti      -0.00003017       6.25321245       3.59010999       0.00010777       0.00226888       0.00297008
Ti       1.46800309       1.51743834       4.82486199       0.00020530       0.00243658       0.00366386
Ti       4.40399843       1.51742472       4.82481832      -0.00021836       0.00261891       0.00377279
Ti       1.46803458       4.47704685       5.43382665       0.00019400       0.00151952       0.00355816
Ti       4.40396935       4.47704498       5.43379238      -0.00014401       0.00143780       0.00367640
Ti       2.93603419       6.63399341       6.59564166      -0.00009037       0.00272416       0.00419194
Ti      -0.00000039       6.63199075       6.59561903       0.00006886       0.00346848       0.00388373
Ti       2.93602422       2.55996102       7.10171043      -0.00004918       0.00329261       0.00315575
Ti      -0.00000054       2.55936526       7.10069998       0.00004521       0.00219134       0.00334975
Ti       4.40404522       4.72900313       8.26936401      -0.00026162       0.00240723       0.00006046
Ti       1.46799324       4.72900164       8.26929522       0.00023487       0.00231201       0.00028148
Ti       4.40358506       0.76943722       8.87594182      -0.00002099       0.00446107      -0.00334488
Ti       1.46844112       0.76942415       8.87592338       0.00006594       0.00463314      -0.00331246
Ti      -0.00000857       2.93777970      10.06978816       0.00015136       0.00272295      -0.00798367
Ti       2.93606966       2.93905636      10.07235580      -0.00020715       0.00245896      -0.00782740
Ti      -0.00003304       5.76118478      10.53394519       0.00015646       0.00376244      -0.00469751
Ti       2.93606032       5.76315682      10.53690086      -0.00013442       0.00373758      -0.00561999
Ti       1.46525826       1.00269161      11.70354407      -0.00018193       0.00744071      -0.00404209
Ti       4.40680102       1.00267672      11.70349439       0.00016617       0.00747942      -0.00397773
Ti       1.46734701       4.08739351      12.31761485      -0.00035060      -0.00130627      -0.00128991
Ti       4.40470161       4.08738347      12.31754307       0.00030728      -0.00130557      -0.00103706
Ti       2.93609712       2.15630246      13.82613775      -0.00011529       0.00492611       0.00993839
Ti      -0.00003764       2.16592541      13.82774941       0.00010189       0.00493596       0.00934362
Ti       2.93602348       6.21709146      13.66065654      -0.00003102       0.00198132      -0.00284718
Ti      -0.00001649       6.21632859      13.64807743       0.00006395       0.00211671      -0.00259370
Ti       4.39539811       4.19060031      15.14407167      -0.00192882       0.00581993      -0.00083140
Ti       1.47659959       4.19057517      15.14399176       0.00197381       0.00582854      -0.00066879
Ti       4.40202364       0.79202967      15.76307395       0.00067578      -0.00703231       0.00159553
Ti       1.46999999       0.79202207      15.76305106      -0.00065993      -0.00697934       0.00166876
Ti       2.93604570       5.65258105      17.09237821      -0.00006026       0.00435001       0.00366301
Ti      -0.00003223       5.67766885      17.06265336       0.00004195      -0.00528496       0.00686029
Ti       2.93603288       2.84518095      17.27077997      -0.00004203      -0.00674584      -0.00558154
Ti      -0.00001535       2.84514867      17.23182811       0.00004067      -0.00312811      -0.00625775
Ti       4.43999246       0.72976510      18.59170352      -0.00161296      -0.00466038      -0.00268495
Ti       1.43201006       0.72980089      18.59176068       0.00160780      -0.00476020      -0.00269410
Ti       4.36798167       4.51432689      19.17593736       0.00029502      -0.00719945      -0.00052824
Ti       1.50399778       4.51432745      19.17600854      -0.00023496      -0.00706228      -0.00065870
Ti       0.00007118       2.37749468      20.25998586      -0.00014199       0.00171890      -0.00338166
Cu       2.93598889       2.44719866      20.27463474       0.00002599       0.00104546       0.00026801
Ti       0.00005748       6.45463395      20.79189965       0.00003801      -0.00241790      -0.00546412
Ti       2.93596956       6.55201633      20.79428224      -0.00016246       0.00151019      -0.00428708
Ti       1.51975853       4.36076140      21.94492681       0.00033621      -0.00949977       0.00108818
Ti       4.35225357       4.36070761      21.94503836      -0.00027153      -0.00933094       0.00077008
Ti       1.49086451       1.46457784      22.49378529       0.00092998      -0.00389167       0.00610607
Ti       4.38112851       1.46455176      22.49383082      -0.00087912      -0.00372005       0.00606383
Ti       2.93602343       6.22396845      23.68506449      -0.00002353       0.00023829       0.00662145
Ti       0.00001304       6.21192525      23.74362971       0.00000882      -0.00042103       0.00673410
Ti       2.93605972       3.39230480      24.21814657      -0.00003556      -0.00546158       0.00324569
Ti       0.00000254       3.38794669      24.15912553      -0.00000719      -0.00247816       0.00473414
Ti       4.40719139       1.27768769      25.33147041      -0.00080797      -0.00498551      -0.00448093
Ti       1.46487015       1.27767232      25.33155557       0.00085965      -0.00499648      -0.00470290
Ti       4.40062405       5.05210192      25.94828313      -0.00088564       0.00575237      -0.00001078
Ti       1.47143757       5.05211182      25.94841077       0.00086183       0.00572929      -0.00038865
