64
Lattice="5.871999 0.0 0.0 0.0 6.890708 0.0 0.0 0.0 27.401158" Properties=species:S:1:pos:R:3:forces:R:3 job_name=T1m-Zr-Zr-33-d-0.00 GB_type=T1m element=Zr system=Zr-33-d-0.00 distance=0.0 energy=-495.54044993 stress_kbar_3x3="_JSON [[-2.44646864, 0.00104481, 1.33e-06], [0.00104482, -2.81214516, 0.00205926], [1.33e-06, 0.00205924, -10.75547753]]" pbc="T T T"
Ti       2.93603757       0.09550815       0.00049390       0.00000618      -0.00082530       0.00083932
Ti       2.93605031       2.93448004       0.00034459      -0.00003940      -0.00212108      -0.00003614
Ti       0.00003725       0.09545692       0.00045220      -0.00001999       0.00049203       0.00063395
Ti       0.00006435       2.93535176       0.00031157       0.00001814      -0.00264918      -0.00023018
Ti       4.40309050       5.02553182       1.40734270       0.00003744       0.00288367       0.00152566
Ti       1.46899924       5.02553411       1.40733146      -0.00006255       0.00289169       0.00148521
Ti       4.40406769       1.31773016       2.01827885       0.00075579      -0.00150562      -0.00179825
Ti       1.46801243       1.31772816       2.01827039      -0.00075817      -0.00145526      -0.00184762
Ti       2.93603255       3.40713626       3.19626352      -0.00002351       0.00571328       0.00543296
Ti       0.00003165       3.40677126       3.19606857       0.00000941       0.00293593       0.00491356
Ti       2.93604859       6.22547124       3.60368288       0.00000813      -0.00138631       0.00368784
Ti       0.00001404       6.22660082       3.60152256      -0.00004335      -0.00007573       0.00313596
Ti       1.46800935       1.48191027       4.82169992      -0.00018267       0.00327586       0.00524210
Ti       4.40404479       1.48190052       4.82170503       0.00022401       0.00318919       0.00519572
Ti       1.46930648       4.43524423       5.41826281       0.00217283      -0.00191736       0.00074319
Ti       4.40271341       4.43526019       5.41825585      -0.00218820      -0.00188828       0.00070182
Ti       2.93599315       6.58173519       6.58409532      -0.00002971       0.00002223       0.00063597
Ti       0.00001248       6.58505397       6.58107709       0.00003559       0.00592462       0.00263239
Ti       2.93603370       2.51372682       7.07500102      -0.00002511      -0.00086933      -0.00059855
Ti       0.00002358       2.50722376       7.07511749       0.00007622      -0.00660880       0.00142995
Ti       4.40858126       4.65227337       8.22803764      -0.00077546       0.00156873      -0.00254171
Ti       1.46334808       4.65226145       8.22804182       0.00065977       0.00154381      -0.00258820
Ti       4.40664069       0.74170998       8.82733786       0.00421954      -0.00012776      -0.00501512
Ti       1.46537153       0.74174951       8.82724548      -0.00424553      -0.00001168      -0.00518395
Ti       5.87199035       2.87263221      10.07872119       0.00000109       0.00088128      -0.00058954
Ti       2.93597556       2.89086286      10.06678729      -0.00003702       0.00564335       0.00301514
Ti      -0.00008725       5.70395847      10.43408029      -0.00015315      -0.00150580       0.00068788
Ti       2.93604834       5.70160143      10.42603491       0.00003040      -0.00531875       0.00741096
Ti       1.52624761       0.86386231      11.61734420       0.00952276      -0.00808178      -0.00726987
Ti       4.34579895       0.86389138      11.61741961      -0.00938280      -0.00777196      -0.00691743
Ti       1.52309465       4.17341949      12.26266593       0.00416601       0.00738885      -0.00705857
Ti       4.34893556       4.17337059      12.26270813      -0.00406405       0.00682690      -0.00672407
Ti       2.93610775       2.18027094      13.69997570       0.00084484      -0.00130657      -0.00041808
Zr      -0.00009909       2.17102109      13.70005601      -0.00065612       0.00529446      -0.00020365
Ti       2.93593406       6.24843524      13.70040580      -0.00010145      -0.00365225       0.00000704
Ti       5.87198640       6.13126852      13.70045223       0.00007465      -0.01956254      -0.00015096
Ti       4.34876270       4.17324770      15.13771920      -0.00416470       0.00611003       0.00501887
Ti       1.52326954       4.17328922      15.13768555       0.00429263       0.00650196       0.00517205
Ti       4.34559647       0.86412728      15.78374894      -0.00986211      -0.00710742       0.00641215
Ti       1.52644087       0.86410299      15.78386900       0.00997339      -0.00746408       0.00686205
Ti       2.93605254       5.70174600      16.97535447       0.00009863      -0.00515881      -0.00778912
Ti      -0.00010344       5.70423764      16.96735734      -0.00020780      -0.00129465      -0.00077472
Ti       2.93599041       2.89105044      17.33490992      -0.00007675       0.00585290      -0.00342169
Ti       5.87198368       2.87253546      17.32295042       0.00004524       0.00033514       0.00039434
Ti       4.40656654       0.74162857      18.57438401       0.00427951       0.00044314       0.00632297
Ti       1.46539002       0.74166716      18.57443523      -0.00436413       0.00067080       0.00644745
Ti       4.40867987       4.65238357      19.17350927      -0.00034891       0.00080773       0.00390591
Ti       1.46329363       4.65234656      19.17351708       0.00028895       0.00071998       0.00392298
Ti       0.00002457       2.50712481      20.32612035       0.00003196      -0.00608671      -0.00171305
Ti       2.93605947       2.51365655      20.32619938      -0.00001040      -0.00029179       0.00054249
Ti      -0.00000458       6.58525039      20.81995619       0.00000083       0.00539834      -0.00214962
Ti       2.93602409       6.58193321      20.81688338       0.00004908      -0.00050822      -0.00011280
Ti       1.46933427       4.43527287      21.98228147       0.00228297      -0.00112657      -0.00218813
Ti       4.40272585       4.43530644      21.98226588      -0.00230684      -0.00105332      -0.00214408
Ti       1.46806551       1.48196135      22.57877162      -0.00021720       0.00260407      -0.00648082
Ti       4.40400963       1.48197471      22.57877878       0.00021908       0.00258825      -0.00645009
Ti       2.93600984       6.22548157      23.79695703      -0.00001193      -0.00164546      -0.00380916
Ti       0.00003466       6.22667787      23.79923280      -0.00005844       0.00002418      -0.00305242
Ti       2.93605277       3.40725533      24.20468578      -0.00002615       0.00576367      -0.00515679
Ti       0.00001059       3.40683957      24.20491152      -0.00000202       0.00295952      -0.00446884
Ti       4.40407407       1.31784735      25.38294485       0.00090037      -0.00160007       0.00227257
Ti       1.46799401       1.31786509      25.38298986      -0.00094346      -0.00154845       0.00238611
Ti       4.40313680       5.02543477      25.99471357       0.00019271       0.00316281      -0.00008320
Ti       1.46898754       5.02540362      25.99471532      -0.00012905       0.00310846      -0.00005010
