64
Lattice="5.871999 0.0 0.0 0.0 6.890708 0.0 0.0 0.0 27.401158" Properties=species:S:1:pos:R:3:forces:R:3 job_name=T1m-Al-Al-48-d-6.60 GB_type=T1m element=Al system=Al-48-d-6.60 distance=6.6 energy=-492.01065742 stress_kbar_3x3="_JSON [[-10.81537302, 0.00065529, 0.00073774], [0.00065529, -10.91739678, -0.07619418], [0.00073774, -0.07619418, -19.33172443]]" pbc="T T T"
Ti       2.93603686       0.10539990      27.39242987       0.00003147       0.00508577      -0.00196766
Ti       2.93605200       2.94531149      27.38294087       0.00000061      -0.00033380      -0.00422905
Ti       0.00000568       0.11713006      27.39163742       0.00004893       0.00440414      -0.00379949
Ti       0.00003934       2.95198787      27.38698337       0.00003577       0.00094024      -0.00583156
Ti       4.40914840       5.03639518       1.40331373      -0.00353469      -0.00532789       0.00048492
Ti       1.46290806       5.03640456       1.40331305       0.00343430      -0.00534956       0.00057123
Ti       4.39836306       1.32227572       2.01726342       0.00024777       0.00280596       0.00538394
Ti       1.47366442       1.32226940       2.01729601      -0.00036977       0.00256387       0.00501178
Ti       2.93601046       3.41480602       3.20061594      -0.00004549       0.00570193       0.00937697
Ti       0.00001740       3.41518875       3.20297865      -0.00001723       0.00559437       0.00868012
Ti       2.93601707       6.22891057       3.61218726       0.00009165       0.00495339       0.01427541
Ti       0.00003926       6.23053470       3.61329491      -0.00006805       0.00271921       0.01520189
Ti       1.46786297       1.49396542       4.83105111      -0.00046972      -0.00407774       0.01415939
Ti       4.40418865       1.49397449       4.83104021       0.00046558      -0.00414297       0.01409414
Ti       1.46717318       4.44093962       5.43686744      -0.00025566       0.00537653       0.00619453
Ti       4.40487076       4.44094616       5.43686504       0.00022605       0.00527789       0.00618272
Ti       2.93601937       6.59512623       6.60000342      -0.00007483       0.00051925      -0.00354837
Ti       0.00000923       6.59744366       6.59951440       0.00002844      -0.00020033      -0.00229296
Ti       2.93602509       2.51925083       7.09978190      -0.00002596       0.00284355      -0.00204451
Ti       0.00001448       2.51973902       7.10300939       0.00001397       0.00284439      -0.00399154
Ti       4.40481481       4.67563472       8.26389276      -0.00097992       0.00125646      -0.00795505
Ti       1.46716933       4.67564620       8.26391708       0.00105088       0.00117523      -0.00807924
Ti       4.40513568       0.73354829       8.86918447      -0.00106281       0.00956601      -0.01180944
Ti       1.46688740       0.73355256       8.86919083       0.00103896       0.00958491      -0.01196738
Ti       5.87198702       2.88931915      10.09055324       0.00001873       0.00601845      -0.01516476
Ti       2.93599235       2.88864627      10.08338359       0.00000107       0.00662113      -0.00711853
Ti       5.87198328       5.70894992      10.50272847       0.00002907       0.00442827      -0.00540893
Ti       2.93599692       5.70460344      10.49815534      -0.00001087       0.00696943      -0.00408984
Ti       1.47415570       0.91363076      11.68268772      -0.00383306       0.00662229       0.00122223
Ti       4.39782144       0.91361898      11.68271709       0.00390958       0.00673796       0.00106383
Ti       1.47186704       4.09018495      12.30183403      -0.00198530       0.01010429      -0.00384856
Ti       4.40010307       4.09019009      12.30184507       0.00211396       0.01008910      -0.00383945
Ti       2.93597686       2.13546586      13.73168854       0.00003278      -0.00431607       0.00375974
Ti       0.00001106       2.12935175      13.71627695      -0.00003775      -0.00766699       0.00887660
Ti       2.93598451       6.18648326      13.69322769       0.00002764       0.00673054       0.00341478
Ti       5.87199651       6.18555064      13.71527958      -0.00002559       0.00072684       0.00013943
Ti       4.41551331       4.10543411      15.12965845      -0.00378157       0.00998911       0.00104728
Ti       1.45650050       4.10543064      15.12967510       0.00376760       0.00997672       0.00092003
Ti       4.41271911       0.91226994      15.74674071      -0.00310861      -0.01047035       0.00593993
Ti       1.45926257       0.91227343      15.74672759       0.00316562      -0.01057358       0.00632240
Ti       2.93602066       5.71997598      16.94179215      -0.00002718      -0.00322659       0.00124370
Ti       0.00000106       5.70274853      16.96581808       0.00001161       0.00120704      -0.00331717
Ti       2.93600713       2.89202080      17.27013425       0.00002773      -0.00913779       0.01132526
Ti       5.87199744       2.88951143      17.33826731       0.00000834      -0.01002374      -0.00161440
Ti       4.39183957       0.73617358      18.57674507       0.00062716      -0.00201322      -0.01072101
Ti       1.48018885       0.73618846      18.57680444      -0.00057996      -0.00219617      -0.01122840
Ti       4.42437866       4.64941511      19.13939284      -0.00213618      -0.00646450      -0.00265131
Ti       1.44765131       4.64937211      19.13943642       0.00206429      -0.00607630      -0.00346196
Al       0.00006366       2.51467494      20.27946038      -0.00059987      -0.00006949      -0.00017302
Ti       2.93598108       2.47189584      20.27490621       0.00049649       0.00614797       0.00563216
Ti       0.00001512       6.61772218      20.80600050      -0.00000949      -0.01263806      -0.00486939
Ti       2.93602932       6.51119288      20.81085837       0.00005943       0.00837929      -0.00226089
Ti       1.43022517       4.40136941      21.95391457       0.00898815      -0.00552364       0.00435955
Ti       4.44187440       4.40136818      21.95397343      -0.00903867      -0.00555547       0.00376846
Ti       1.45965431       1.48064929      22.52523425       0.00251040      -0.00287513       0.00360474
Ti       4.41236858       1.48063660      22.52526848      -0.00242468      -0.00268853       0.00310633
Ti       2.93605504       6.23420914      23.77704986      -0.00012313      -0.00794809      -0.00378310
Ti       0.00003018       6.24903030      23.74138376       0.00013640      -0.00870368       0.00232624
Ti       2.93602518       3.40537211      24.18024607      -0.00000175      -0.00242396       0.00202683
Ti       0.00004009       3.42239981      24.22956314       0.00009345      -0.00576580      -0.00828560
Ti       4.38951718       1.31799701      25.34947092      -0.00027725      -0.00364669      -0.00045046
Ti       1.48255665       1.31798836      25.34952296       0.00020598      -0.00364916      -0.00095280
Ti       4.41449374       5.04294708      25.97617970      -0.00450006      -0.01047993      -0.00442977
Ti       1.45759987       5.04294887      25.97619714       0.00439527      -0.01039629      -0.00453097
