64
Lattice="5.871999 0.0 0.0 0.0 6.890708 0.0 0.0 0.0 27.401158" Properties=species:S:1:pos:R:3:forces:R:3 job_name=T1m-Zr-Zr-44-d-4.84 GB_type=T1m element=Zr system=Zr-44-d-4.84 distance=4.84 energy=-495.66555935 stress_kbar_3x3="_JSON [[-2.8500553, 0.00048934, -0.0003921], [0.00048932, -3.43883967, -0.0580923], [-0.00039209, -0.05809231, -10.46573407]]" pbc="T T T"
Ti       2.94967853       0.09593470       0.01833065       0.00337021      -0.00212019       0.00123617
Ti       2.93907470       2.93640597       0.01960819      -0.00008900      -0.00129245      -0.00067321
Ti       5.85840403       0.09593442       0.01832287      -0.00341210      -0.00218187       0.00130131
Ti       5.86896483       2.93642004       0.01961166       0.00009307      -0.00133978      -0.00064985
Ti       4.40398313       5.02796812       1.42664441       0.00015975       0.00278599      -0.00684217
Ti       1.46802022       5.02888618       1.42506383       0.00002651       0.00308098      -0.00658350
Ti       4.40403204       1.31974949       2.04141649       0.00001972      -0.00625348      -0.00559922
Ti       1.46804483       1.31579118       2.03127820      -0.00000744      -0.00675927      -0.00665384
Ti       2.93327145       3.40978917       3.21214366       0.00023998      -0.00226831      -0.00351572
Ti       0.00277372       3.40978742       3.21214944      -0.00021513      -0.00229312      -0.00351724
Ti       2.93608129       6.23006530       3.61962776       0.00023221      -0.00051447      -0.00373355
Ti      -0.00003544       6.23007916       3.61962985      -0.00023912      -0.00052729      -0.00368683
Ti       1.46800808       1.49151013       4.83677565       0.00005063      -0.00137079      -0.00059154
Ti       4.40401967       1.49198805       4.83929735       0.00000914      -0.00063729       0.00005102
Ti       1.46802191       4.44012735       5.43437762       0.00000711      -0.00051448       0.00001922
Ti       4.40402777       4.44148271       5.43362348      -0.00001230      -0.00191231      -0.00150910
Ti       2.93886323       6.59444726       6.59148466      -0.00016522      -0.00006421       0.00079283
Ti       5.86915567       6.59446363       6.59148632       0.00019389      -0.00016244       0.00077071
Ti       2.93769647       2.52275180       7.09246179      -0.00009871      -0.00109011      -0.00167618
Ti       5.87035114       2.52276047       7.09247054       0.00006260      -0.00111724      -0.00169211
Ti       4.40399887       4.67862938       8.24868575       0.00003587       0.00133560      -0.00095057
Ti       1.46799397       4.67400891       8.25017602       0.00002188       0.00074925      -0.00181925
Ti       4.40402021       0.73193609       8.85711533      -0.00004834      -0.00146080      -0.00042173
Ti       1.46802454       0.73436677       8.83379598      -0.00001836      -0.00122361      -0.00118142
Ti       5.87064337       2.88504155      10.06223055       0.00128427       0.00060987       0.00072639
Ti       2.93734212       2.88503969      10.06223681      -0.00125794       0.00061762       0.00070153
Ti       5.86002813       5.70321921      10.47425766       0.00131626       0.00219074      -0.00060675
Ti       2.94799219       5.70319280      10.47425602      -0.00134818       0.00229660      -0.00063879
Ti       1.46800138       0.90119516      11.62322064      -0.00001213       0.00206788       0.00139037
Ti       4.40398816       0.91395287      11.66596374       0.00001119       0.00261277       0.00335055
Ti       1.46798495       4.08427281      12.24987285      -0.00000573      -0.00171355       0.00373027
Ti       4.40400706       4.07999375      12.26527584      -0.00009023      -0.00209381       0.00307652
Ti       2.89263326       2.11347062      13.66396185      -0.00670655      -0.00198473       0.00110244
Ti       0.04337728       2.11345501      13.66396334       0.00671970      -0.00193376       0.00109628
Ti       2.92784353       6.17416799      13.66745447      -0.00308392       0.00143154       0.00367375
Ti       0.00810855       6.17418231      13.66745449       0.00309520       0.00136391       0.00367968
Ti       4.40400322       4.07375550      15.07299999       0.00006713      -0.00139259       0.00159582
Ti       1.46797490       4.07430925      15.05769959       0.00002429      -0.00149363       0.00343020
Ti       4.40400816       0.92079708      15.64777337      -0.00000252       0.00414790      -0.00915590
Ti       1.46804005       0.92544832      15.74008894      -0.00016793       0.00458800      -0.00745910
Ti       2.92849571       5.68606281      16.85468275      -0.00213214      -0.00087887      -0.00632093
Ti       0.00755163       5.68603676      16.85467030       0.00206152      -0.00078892      -0.00625683
Ti       2.89807131       2.93252542      17.27974737      -0.00421956       0.00720981      -0.00400976
Ti       0.03792069       2.93255036      17.27974984       0.00426907       0.00707774      -0.00400202
Zr       4.40402051       0.74806169      18.55592183      -0.00001243       0.00659559      -0.00149038
Ti       1.46803439       0.75508894      18.57202049      -0.00013438      -0.00122628      -0.00474415
Ti       4.40399330       4.62149567      19.12835873       0.00008930       0.00418910      -0.00076819
Ti       1.46801841       4.70837438      19.15536166      -0.00002720      -0.00002449      -0.00422793
Ti       0.04455061       2.55574814      20.35643097       0.00159876       0.00085338      -0.00225381
Ti       2.89150304       2.55574579      20.35641878      -0.00161736       0.00083417      -0.00224556
Ti       0.03289257       6.57553656      20.86980103       0.00399893       0.00005020       0.00066029
Ti       2.90314401       6.57555052      20.86977925      -0.00396527       0.00002205       0.00072974
Ti       1.46804139       4.42931371      22.00549260      -0.00003293       0.00403014       0.00138377
Ti       4.40402673       4.44851793      21.98482116       0.00001666      -0.00212110       0.00260249
Ti       1.46800653       1.48745868      22.61653788       0.00000913      -0.00254219      -0.00087298
Ti       4.40400505       1.47600298      22.57858401       0.00002867       0.00203589       0.00766792
Ti       2.93922389       6.22902804      23.81701611      -0.00243969      -0.00184945       0.00538166
Ti       5.86880641       6.22901800      23.81702217       0.00250065      -0.00183723       0.00538698
Ti       2.93907329       3.40317631      24.21937382      -0.00183407       0.00100449       0.00900213
Ti       5.86899428       3.40317974      24.21937142       0.00173270       0.00096563       0.00897601
Ti       4.40404823       1.31852810      25.38791638      -0.00004589      -0.00734682       0.00690409
Ti       1.46804854       1.31838031      25.41304361       0.00001485      -0.00889375       0.01573983
Ti       4.40401143       5.02564830      26.01010420       0.00000776       0.00486662       0.00556311
Ti       1.46802141       5.02378589      26.00822600       0.00007316       0.00361122       0.00462704
