64
Lattice="5.871999 0.0 0.0 0.0 6.890708 0.0 0.0 0.0 27.401158" Properties=species:S:1:pos:R:3:forces:R:3 job_name=T1m-V-V-41-d-3.20 GB_type=T1m element=V system=V-41-d-3.20 distance=3.2 energy=-496.0805447 stress_kbar_3x3="_JSON [[-11.34496991, -2.62e-05, -0.00047578], [-2.619e-05, -13.94654041, -0.32356249], [-0.00047579, -0.32356252, -21.50180345]]" pbc="T T T"
Ti       2.93598734       0.00114295       0.19938620      -0.00004022      -0.00613429      -0.00249127
Ti       2.93600262       2.81629840      27.19896128       0.00005429      -0.00553714      -0.00015431
Ti       0.00000046       0.00107702       0.19787095       0.00005581      -0.00446797       0.00004041
Ti      -0.00000041       2.81511670      27.19938276      -0.00002084      -0.00670979       0.00624732
Ti       4.40447842       4.80199963       1.38738878       0.00112237      -0.00360722       0.00552143
Ti       1.46751413       4.80202121       1.38741150      -0.00106731      -0.00365554       0.00570819
Ti       4.40517616       1.60027926       2.00914028       0.00247759      -0.00427289       0.00261713
Ti       1.46684849       1.60026178       2.00911976      -0.00243064      -0.00433598       0.00272196
Ti       2.93599675       3.56781861       3.41067835      -0.00006379      -0.00453128      -0.00139385
Ti      -0.00001430       3.56856543       3.41150743      -0.00000586      -0.00317243      -0.00359262
Ti       2.93605874       6.40238889       3.43747013      -0.00006228      -0.00341255       0.00014869
Ti       0.00005530       6.40213856       3.43742304       0.00016183      -0.00032185       0.00153212
Ti       1.46765380       1.60540764       4.84333042      -0.00199596      -0.00336184      -0.00295769
Ti       4.40442119       1.60539227       4.84334945       0.00196276      -0.00350137      -0.00265426
Ti       1.46812155       4.75207302       5.46398289      -0.00215692       0.00132886      -0.00577488
Ti       4.40387339       4.75207708       5.46399247       0.00216184       0.00132884      -0.00578651
Ti       2.93598625       6.85250719       6.63403303       0.00004536       0.00392080       0.00371318
Ti       0.00002924       6.85180701       6.63533578       0.00000394       0.00345982      -0.00005563
Ti       2.93603004       2.77329501       7.07041195       0.00005056       0.00294773      -0.00036548
Ti       0.00004933       2.77234756       7.06861279      -0.00001090       0.00164568      -0.00153669
Ti       4.40321406       4.93241893       8.28193022       0.00189242       0.00374519       0.00075291
Ti       1.46883917       4.93244412       8.28192485      -0.00193469       0.00381030       0.00079160
Ti       4.40349176       0.97129569       8.88756885      -0.00040034       0.00470419      -0.00186117
Ti       1.46856192       0.97131473       8.88762031       0.00040893       0.00465324      -0.00194710
Ti       0.00000664       3.13207908      10.04301713      -0.00007313      -0.00097402      -0.00326701
Ti       2.93600797       3.13378365      10.04638249       0.00010581       0.00239004      -0.00294083
Ti       0.00002735       5.95214561      10.55661265      -0.00004190       0.00200648      -0.00602005
Ti       2.93604261       5.94782805      10.56016869      -0.00000109       0.00227473      -0.00511459
Ti       1.46968630       1.22304248      11.72692275       0.00263070       0.00415013      -0.00179987
Ti       4.40234487       1.22304077      11.72687528      -0.00258344       0.00422335      -0.00163296
Ti       1.46647940       4.14690444      12.31884381       0.00439120      -0.00085368       0.00201719
Ti       4.40555370       4.14686388      12.31882452      -0.00431728      -0.00096344       0.00212640
Ti       2.93604595       2.24430193      13.95523920       0.00029804       0.00310575       0.00066250
Ti      -0.00000644       2.24498806      13.97942675      -0.00044482       0.00157814      -0.00346885
Ti       2.93601516       6.29787113      13.54438639       0.00001682       0.00111837       0.00046524
Ti       0.00002105       6.31666902      13.51490085      -0.00013921       0.00254088      -0.00000273
Ti       4.46185096       4.35944849      15.16534417      -0.00435672       0.00287015      -0.00554489
Ti       1.41016474       4.35944803      15.16534342       0.00436542       0.00306131      -0.00541272
Ti       4.43312052       0.56506011      15.72310131       0.00187305      -0.00281274      -0.00055468
Ti       1.43896087       0.56510582      15.72311120      -0.00185727      -0.00294252      -0.00015686
Ti       2.93598907       5.50038668      17.11580021      -0.00012601      -0.00273870       0.00030316
V        0.00000805       5.61612340      17.11858103      -0.00000116       0.00565669      -0.00152437
Ti       2.93606259       2.63129225      17.13040571      -0.00023471      -0.00566345       0.00034594
Ti       0.00007236       2.71651902      17.13306501      -0.00002670      -0.00037331       0.00193039
Ti       4.42978281       0.56551102      18.52798219      -0.00191422       0.00513038      -0.00084019
Ti       1.44228667       0.56548881      18.52798807       0.00210023       0.00477595      -0.00150628
Ti       4.45989862       4.38497777      19.08537895       0.00271328      -0.00534543       0.00665982
Ti       1.41212442       4.38496034      19.08540984      -0.00277189      -0.00524617       0.00653570
Ti      -0.00000448       2.26790004      20.26261876      -0.00021626       0.00539776       0.00296725
Ti       2.93602101       2.26872018      20.28472222       0.00037670       0.00486315      -0.00060151
Ti       0.00000609       6.34457494      20.74442289      -0.00009143       0.00628384       0.00172753
Ti       2.93601036       6.32691096      20.71771986       0.00006865      -0.00018967      -0.00148683
Ti       1.46655943       4.17692461      21.93143887      -0.00286171      -0.00053540       0.00327962
Ti       4.40547565       4.17690827      21.93141312       0.00287578      -0.00065448       0.00304822
Ti       1.47033649       1.26485557      22.52512218       0.00025889       0.00151279       0.00681558
Ti       4.40165095       1.26487212      22.52512156      -0.00023532       0.00199037       0.00672848
Ti       2.93600560       5.99102081      23.69301510      -0.00006521      -0.00262056       0.00247519
Ti      -0.00000165       5.99568172      23.69591921       0.00008299      -0.00019201       0.00413691
Ti       2.93600917       3.18090031      24.20784093      -0.00000634      -0.00279208      -0.00044584
Ti      -0.00000230       3.17994072      24.20930575      -0.00003328      -0.00111654       0.00301680
Ti       4.40374401       1.02345699      25.36280709      -0.00127969      -0.00106431      -0.00272138
Ti       1.46821811       1.02347867      25.36279592       0.00133699      -0.00107899      -0.00270818
Ti       4.40333893       4.97205511      25.97092446       0.00152548      -0.00079014      -0.00335569
Ti       1.46867349       4.97206308      25.97092300      -0.00154917      -0.00050512      -0.00335909
