64
Lattice="5.871999 0.0 0.0 0.0 6.890708 0.0 0.0 0.0 27.401158" Properties=species:S:1:pos:R:3:forces:R:3 job_name=T1m-Zn-Zn-48-d-6.60 GB_type=T1m element=Zn system=Zn-48-d-6.60 distance=6.6 energy=-488.78692962 stress_kbar_3x3="_JSON [[-11.9617755, -5.113e-05, 0.00082128], [-5.117e-05, -12.20610127, -0.38641496], [0.00082127, -0.38641501, -20.66192087]]" pbc="T T T"
Ti       2.93608217       0.11068358      27.39073409       0.00008575       0.00819434      -0.00032596
Ti       2.93601259       2.94568976      27.37394957       0.00013144      -0.01015308      -0.00160210
Ti       0.00001584       0.11946989      27.39597295      -0.00007573       0.00778020      -0.00012556
Ti       0.00005754       2.94963237      27.37937523      -0.00009045      -0.01000318      -0.00037992
Ti       4.40701414       5.03109958       1.40267784       0.00012510      -0.00814693      -0.00209180
Ti       1.46508362       5.03105038       1.40276424      -0.00016212      -0.00808821      -0.00215044
Ti       4.39943576       1.32918125       2.01493643       0.00057917       0.01227345      -0.00325547
Ti       1.47265898       1.32923157       2.01509007      -0.00062521       0.01227532      -0.00369341
Ti       2.93602236       3.41682001       3.20005832       0.00012182      -0.00541452       0.01095110
Ti       0.00004732       3.41748470       3.20222710      -0.00007066      -0.00557404       0.01063940
Ti       2.93604968       6.23167191       3.61012008       0.00001527      -0.00111278       0.01062237
Ti      -0.00002636       6.23284602       3.61002420       0.00004181      -0.00074759       0.01147009
Ti       1.46773363       1.49494925       4.83026934      -0.00038934       0.00298543       0.00185642
Ti       4.40433202       1.49491055       4.83043355       0.00032271       0.00320795       0.00148584
Ti       1.46693573       4.44250068       5.43689490       0.00064097       0.00176086      -0.00346225
Ti       4.40514000       4.44259491       5.43700039      -0.00071127       0.00136559      -0.00360022
Ti       2.93607245       6.59477307       6.59827191      -0.00011084      -0.00027423      -0.00458225
Ti      -0.00005844       6.59672348       6.59789362       0.00014400       0.00183393      -0.00475271
Ti       2.93605500       2.52187895       7.09915381      -0.00005727       0.00399029      -0.00200426
Ti      -0.00007127       2.52344376       7.10205510       0.00015034       0.00141794      -0.00361423
Ti       4.40499491       4.67808922       8.26373106      -0.00025186       0.00261864      -0.00500424
Ti       1.46703118       4.67817663       8.26382100       0.00019631       0.00243338      -0.00511879
Ti       4.40500568       0.73674520       8.87088700       0.00055380       0.00110794      -0.00649274
Ti       1.46703697       0.73675477       8.87112734      -0.00062003       0.00113580      -0.00701823
Ti       0.00001772       2.89268517      10.09003670      -0.00003008       0.00506250       0.00452196
Ti       2.93595787       2.89157050      10.08577619       0.00008781       0.00452865       0.00458223
Ti       0.00003243       5.71391885      10.51140020      -0.00000634      -0.00258228       0.00907477
Ti       2.93596486       5.71048065      10.50677783       0.00003783      -0.00205490       0.00785309
Ti       1.47228169       0.92261497      11.68752146      -0.00140654      -0.00188105      -0.00042513
Ti       4.39970848       0.92261899      11.68770647       0.00136976      -0.00191531      -0.00108025
Ti       1.47163158       4.09381453      12.30488720      -0.00116957       0.00275491       0.00041592
Ti       4.40035838       4.09381347      12.30498793       0.00112597       0.00275457       0.00031306
Ti       2.93610808       2.14314347      13.73976030       0.00013527       0.00296114       0.00198526
Ti      -0.00015681       2.13412185      13.73070499      -0.00009927       0.00171607       0.00241890
Ti       2.93602015       6.18865043      13.69076474       0.00010341      -0.00287082      -0.00175694
Ti      -0.00005619       6.18598264      13.71301500      -0.00005466      -0.00079933      -0.00004646
Ti       4.41246386       4.11988834      15.12932109      -0.00035307       0.00893697      -0.00191404
Ti       1.45953878       4.11990425      15.12943121       0.00031222       0.00898136      -0.00220642
Ti       4.41525085       0.89192353      15.75050468      -0.00066950      -0.01005590       0.00211641
Ti       1.45672797       0.89197798      15.75028878       0.00060549      -0.01016058       0.00246326
Ti       2.93602167       5.72333182      16.95570904       0.00012251       0.01149951       0.00100351
Ti      -0.00007600       5.69724773      16.99574941      -0.00007167      -0.00205413       0.00549243
Ti       2.93601328       2.89409093      17.27289415       0.00018428      -0.01064402       0.00605564
Ti       0.00000275       2.87977551      17.32573071      -0.00014775       0.00281030      -0.00321561
Ti       4.38086682       0.74109939      18.57738558      -0.00711517      -0.00481239       0.00555207
Ti       1.49115919       0.74105550      18.57739698       0.00712144      -0.00472511       0.00558324
Ti       4.41867521       4.62956419      19.15009943       0.00164421       0.00663865       0.00390775
Ti       1.45335684       4.62948576      19.15023536      -0.00163799       0.00678123       0.00356179
Zn       0.00005288       2.51194800      20.28650093      -0.00030273      -0.00280793      -0.01396394
Ti       2.93594940       2.45559016      20.25911044       0.00025607      -0.00941209       0.00124736
Ti      -0.00002268       6.60829268      20.80096757       0.00011945      -0.01103809       0.00328615
Ti       2.93601744       6.50942929      20.81967470      -0.00004212       0.00391284      -0.00435622
Ti       1.42881964       4.40002597      21.95094785      -0.00507246       0.00267810       0.00530620
Ti       4.44328415       4.40005751      21.95111427       0.00502425       0.00253472       0.00484275
Ti       1.46200376       1.48242208      22.52039311       0.00608314       0.00026792       0.00487547
Ti       4.41002978       1.48240029      22.52043594      -0.00607960       0.00032526       0.00487131
Ti       2.93599323       6.23149880      23.76859779       0.00014806       0.00103558      -0.00591398
Ti       0.00002622       6.24940808      23.71585035      -0.00004882      -0.00402796      -0.01100159
Ti       2.93607604       3.40895457      24.17453757      -0.00004548      -0.01200907      -0.00701158
Ti      -0.00002618       3.41638247      24.21964026       0.00010993      -0.00387175      -0.00989562
Ti       4.39656387       1.30946822      25.34881041      -0.00254221       0.01008748      -0.00391787
Ti       1.47558413       1.30945504      25.34885839       0.00241796       0.01013923      -0.00409831
Ti       4.41107072       5.04558636      25.96822975      -0.00214523      -0.00677155      -0.00423687
Ti       1.46100911       5.04551116      25.96814807       0.00208753      -0.00677925      -0.00404034
