64
Lattice="5.871999 0.0 0.0 0.0 6.890708 0.0 0.0 0.0 27.401158" Properties=species:S:1:pos:R:3:forces:R:3 job_name=T1m-Zr-Zr-36-d-1.42 GB_type=T1m element=Zr system=Zr-36-d-1.42 distance=1.42 energy=-495.66320707 stress_kbar_3x3="_JSON [[-1.72323441, -0.00095454, -0.0015587], [-0.00095455, -4.19516152, -1.19281596], [-0.00155869, -1.19281595, -8.7571749]]" pbc="T T T"
Ti       2.93697367       0.09967632       0.00307923      -0.00713143      -0.00326368      -0.00081020
Ti       2.93643968       2.94010344       0.00491175      -0.00303429      -0.00488821      -0.00038286
Ti       5.87106064       0.09967164       0.00305862       0.00719092      -0.00331672      -0.00079353
Ti       5.87163372       2.94010253       0.00490930       0.00303175      -0.00483583      -0.00041177
Ti       4.40401562       5.02793144       1.41392782       0.00004248      -0.01094647      -0.00071767
Ti       1.46803142       5.02703362       1.41103202       0.00004099      -0.00825319      -0.00414747
Ti       4.40404182       1.32250563       2.02102782      -0.00009442       0.00117357       0.00571129
Ti       1.46800899       1.31961818       2.02045680       0.00009396       0.00290212       0.00711367
Ti       2.93588593       3.40993627       3.19840465      -0.00387843      -0.00207943      -0.00277213
Ti       0.00016988       3.40994082       3.19840252       0.00389635      -0.00210872      -0.00283391
Ti       2.93657667       6.23098283       3.60654320      -0.00449006      -0.00032425       0.00336894
Ti       5.87149906       6.23098942       3.60656305       0.00451011      -0.00035214       0.00340299
Ti       1.46804035       1.48883533       4.82272969       0.00001783       0.00195076       0.00027048
Ti       4.40403983       1.49272592       4.82104380       0.00004433      -0.00418124       0.00104548
Ti       1.46801342       4.44120856       5.41668476      -0.00000004       0.00438620      -0.00586830
Ti       4.40403797       4.44197158       5.42226715      -0.00002235       0.00046299      -0.00505392
Ti       2.94047910       6.59402236       6.57764868      -0.00129397       0.00021233      -0.00376026
Ti       5.86749467       6.59402617       6.57765978       0.00126775       0.00027134      -0.00380783
Ti       2.94001620       2.52118784       7.07716780       0.00034913       0.00219501      -0.00583169
Ti       5.86809940       2.52118559       7.07718016      -0.00039696       0.00221637      -0.00590915
Ti       4.40400109       4.67784401       8.23745127      -0.00002325       0.00490778      -0.00127256
Ti       1.46799864       4.67030030       8.22632684      -0.00002275       0.00989184      -0.00361247
Ti       4.40400343       0.73530287       8.84785478      -0.00006591       0.00238452      -0.00610778
Ti       1.46800961       0.73856699       8.81434056      -0.00002066       0.00242173      -0.00055866
Ti       0.00280623       2.89351464      10.05268623      -0.00133580       0.00977988      -0.01357055
Ti       2.93314278       2.89350940      10.05266391       0.00146956       0.00985131      -0.01363571
Ti       5.86736413       5.70478999      10.45446774       0.00047470       0.01218594      -0.00551751
Ti       2.94062542       5.70478164      10.45447376      -0.00046761       0.01209276      -0.00549740
Ti       1.46800052       0.91430410      11.59023361       0.00002826       0.01440915      -0.01290764
Ti       4.40398276       0.91918157      11.65013478      -0.00000919      -0.00089746      -0.01962374
Ti       1.46797835       4.10102856      12.26923884       0.00001765       0.00485332      -0.00109848
Ti       4.40398277       4.09049676      12.22045799      -0.00006870      -0.00290605       0.00124776
Ti       2.86575602       2.10814759      13.65784951       0.00740579       0.00070712       0.01182937
Ti       0.07024819       2.10815603      13.65784421      -0.00744269       0.00057024       0.01183053
Ti       2.89871693       6.22074494      13.63323697       0.00999617       0.00634476      -0.00620942
Ti       0.03726242       6.22074440      13.63323935      -0.01005987       0.00636937      -0.00609425
Zr       4.40400795       4.10699236      15.15307786      -0.00006372       0.00908622       0.00440494
Ti       1.46797714       4.10376027      15.13252544       0.00025405       0.00486331       0.00981347
Ti       4.40400435       0.84974255      15.68235126      -0.00001401      -0.01105129       0.00841027
Ti       1.46799120       0.91113061      15.75820702       0.00000441       0.00553305      -0.00645134
Ti       2.87597004       5.72865842      17.00581028       0.01135827       0.00062217       0.00258084
Ti       0.06003515       5.72866160      17.00580654      -0.01133265       0.00063560       0.00251092
Ti       2.89300113       2.85811087      17.37267822       0.01062440      -0.00125548      -0.00003203
Ti       0.04298492       2.85811376      17.37267411      -0.01059672      -0.00129414      -0.00001490
Ti       4.40400411       0.74646885      18.55252652      -0.00010441      -0.00474845       0.00801489
Ti       1.46801383       0.72566465      18.60307000       0.00013998      -0.00519444      -0.00049788
Ti       4.40401512       4.66045546      19.14840687      -0.00006697      -0.00810360       0.01183574
Ti       1.46802118       4.65284650      19.21009711      -0.00003624       0.00192890       0.00590021
Ti       5.86051950       2.51495529      20.33837532       0.01042980      -0.00388699       0.00935745
Ti       2.94753154       2.51494809      20.33837124      -0.01054671      -0.00389312       0.00939835
Ti       5.86428707       6.58418080      20.82737556       0.00644437      -0.00275781       0.00804096
Ti       2.94374806       6.58418405      20.82737499      -0.00628804      -0.00271942       0.00805603
Ti       1.46802297       4.44059173      22.01367555       0.00002573       0.00134231       0.00210810
Ti       4.40400978       4.43793676      21.97469393       0.00002522      -0.00395553       0.00744227
Ti       1.46803527       1.48088781      22.58272483       0.00000125      -0.00195354       0.00085044
Ti       4.40404422       1.49252183      22.58798330      -0.00007687      -0.01179512       0.00591166
Ti       2.94020311       6.22963590      23.80592888      -0.00291213      -0.00511715      -0.00137275
Ti       5.86788504       6.22963358      23.80593194       0.00278791      -0.00510627      -0.00124891
Ti       2.94268654       3.40847380      24.21239321       0.00053544      -0.00266836       0.00194901
Ti       5.86538573       3.40847924      24.21238318      -0.00053490      -0.00269045       0.00198370
Ti       4.40403570       1.32154864      25.38839950      -0.00010509       0.00060945      -0.00255181
Ti       1.46803599       1.32254873      25.38708617      -0.00003048      -0.00395798      -0.00170598
Ti       4.40401863       5.02616319      26.00232242       0.00005757      -0.00563298      -0.00220097
Ti       1.46803992       5.02322800      25.99528976       0.00000119      -0.00102589       0.00049369
