64
Lattice="5.871999 0.0 0.0 0.0 6.890708 0.0 0.0 0.0 27.401158" Properties=species:S:1:pos:R:3:forces:R:3 job_name=T1m-Zr-Zr-34-d-0.00 GB_type=T1m element=Zr system=Zr-34-d-0.00 distance=0.0 energy=-495.877747 stress_kbar_3x3="_JSON [[-2.75389519, -0.00313741, 0.00094401], [-0.0031374, -3.25486834, -0.00068333], [0.00094397, -0.00068333, -9.77819662]]" pbc="T T T"
Ti       2.93603895       0.09914661      -0.00005596      -0.00004597       0.00223309       0.00014537
Ti       2.93602248       2.93928195      -0.00003022       0.00003132       0.00830877       0.00000300
Ti       0.00000121       0.09942174      -0.00003925       0.00005250      -0.00273656      -0.00009486
Ti       0.00002470       2.93998786      -0.00003657      -0.00001580       0.00472606       0.00000744
Ti       4.40398184       5.02681046       1.40697191      -0.00058623       0.00257281      -0.00610411
Ti       1.46807137       5.02677217       1.40698907       0.00056749       0.00283546      -0.00632046
Ti       4.40409254       1.32235002       2.01721881      -0.00100381       0.00083381      -0.00768392
Ti       1.46793065       1.32235819       2.01719420       0.00104292       0.00073775      -0.00741640
Ti       2.93602082       3.41276239       3.19146936      -0.00001484       0.00245199      -0.00884690
Ti       0.00001733       3.41201561       3.19063777      -0.00002319       0.00004944       0.00236881
Ti       2.93601974       6.23453244       3.60353801       0.00000637      -0.00052915      -0.00552105
Ti       0.00002524       6.23480613       3.59990990      -0.00004422       0.00022022      -0.00651988
Ti       1.46873665       1.49836181       4.81694528       0.00020555       0.00086513       0.00124387
Ti       4.40326579       1.49835369       4.81691144      -0.00012494       0.00089103       0.00163435
Ti       1.46969152       4.44613316       5.41343353      -0.00056909      -0.00018648       0.00651218
Ti       4.40233565       4.44611762       5.41341538       0.00054367      -0.00000941       0.00671579
Ti       2.93599116       6.60425934       6.57160922       0.00012202       0.00119846       0.00489540
Ti       0.00001190       6.60237348       6.56187720      -0.00013209      -0.00125357       0.00244564
Ti       2.93599666       2.53049208       7.07326886       0.00011663       0.00638939       0.00581584
Ti       0.00000971       2.53338426       7.06942869      -0.00010141      -0.00147220       0.00195295
Ti       4.41060943       4.69713226       8.23405538      -0.00163522      -0.00099684       0.00219474
Ti       1.46138546       4.69710622       8.23404146       0.00151060      -0.00069005       0.00249891
Ti       4.40737681       0.73147033       8.82339226      -0.00411334       0.00119786       0.00403625
Ti       1.46461768       0.73147222       8.82333708       0.00405353       0.00120110       0.00480178
Ti      -0.00001462       2.90152843      10.00965925       0.00005848      -0.00346392       0.00583640
Ti       2.93597779       2.90194786      10.03192114       0.00010617      -0.00626372      -0.00574414
Ti      -0.00004705       5.70904436      10.50373604       0.00008024      -0.00075241      -0.00249744
Ti       2.93600397       5.71157496      10.45618222      -0.00011867       0.00225530      -0.00649372
Ti       1.46819145       0.95537546      11.61562038       0.00014649      -0.00085744      -0.00569825
Ti       4.40382164       0.95541093      11.61552093      -0.00017063      -0.00072298      -0.00491496
Ti       1.41799283       4.00205624      12.24182853       0.00021363      -0.00359008      -0.00573328
Ti       4.45400321       4.00197483      12.24183727       0.00011654      -0.00315766      -0.00588764
Ti       2.93597533       2.14814629      13.70062454       0.00007264      -0.00196689      -0.00028811
Ti      -0.00000241       2.04460702      13.70059955      -0.00038759      -0.00145305      -0.00008634
Zr       2.93629302       6.12834218      13.70074994      -0.00024019      -0.00583808      -0.00024804
Ti       0.00019459       6.10984144      13.70061326       0.00011104      -0.00201503      -0.00016967
Ti       4.45399840       4.00200638      15.15936148       0.00017403      -0.00343211       0.00598605
Ti       1.41800054       4.00211514      15.15936160       0.00007477      -0.00407396       0.00579807
Ti       4.40382690       0.95543160      15.78563761      -0.00000663      -0.00078694       0.00562666
Ti       1.46820306       0.95538811      15.78557167       0.00003557      -0.00071350       0.00598391
Ti       2.93599011       5.71161114      16.94496649       0.00003868       0.00236862       0.00721015
Ti      -0.00002773       5.70907772      16.89746452      -0.00004274      -0.00058870       0.00240601
Ti       2.93598240       2.90199662      17.36926442       0.00015362      -0.00649740       0.00587201
Ti       0.00000208       2.90156224      17.39155978       0.00001405      -0.00338870      -0.00602909
Ti       4.40739177       0.73152851      18.57783925      -0.00416579       0.00114051      -0.00460116
Ti       1.46462388       0.73152545      18.57785432       0.00408891       0.00114875      -0.00487248
Ti       4.41062051       4.69715781      19.16713384      -0.00165348      -0.00079824      -0.00247574
Ti       1.46139561       4.69714112      19.16713273       0.00151063      -0.00063474      -0.00246666
Ti       0.00000607       2.53342792      20.33175079       0.00005141      -0.00139310      -0.00182614
Ti       2.93601698       2.53055174      20.32789940      -0.00002012       0.00632552      -0.00574114
Ti      -0.00000584       6.60242556      20.83925683       0.00011622      -0.00160214      -0.00231444
Ti       2.93601674       6.60429439      20.82954439      -0.00007994       0.00123310      -0.00484088
Ti       1.46971485       4.44616309      21.98773418      -0.00080703      -0.00002835      -0.00670966
Ti       4.40232819       4.44616203      21.98772313       0.00064282      -0.00005057      -0.00660952
Ti       1.46874356       1.49837065      22.58421270       0.00026834       0.00089105      -0.00159092
Ti       4.40327385       1.49836949      22.58421214      -0.00021707       0.00092472      -0.00153568
Ti       2.93602728       6.23454395      23.79759267       0.00000800      -0.00040261       0.00548019
Ti       0.00002640       6.23485456      23.80122491      -0.00001964       0.00005005       0.00640463
Ti       2.93602472       3.41278661      24.20962391       0.00000089       0.00233955       0.00877642
Ti       0.00002180       3.41201290      24.21045513      -0.00001587       0.00025475      -0.00248160
Ti       4.40410155       1.32238056      25.38388095      -0.00104866       0.00075073       0.00761407
Ti       1.46793625       1.32240625      25.38387674       0.00109083       0.00058469       0.00775824
Ti       4.40399195       5.02677731      25.99411563      -0.00060940       0.00267106       0.00613514
Ti       1.46806554       5.02677175      25.99411293       0.00058698       0.00269582       0.00620399
