64
Lattice="5.871999 0.0 0.0 0.0 6.890708 0.0 0.0 0.0 27.401158" Properties=species:S:1:pos:R:3:forces:R:3 job_name=T1m-Cu-Cu-33-d-0.00 GB_type=T1m element=Cu system=Cu-33-d-0.00 distance=0.0 energy=-491.34336176 stress_kbar_3x3="_JSON [[-16.62227516, 0.00106082, 9.456e-05], [0.00106086, -20.72870048, 0.00648195], [9.46e-05, 0.00648198, -30.00282207]]" pbc="T T T"
Ti       2.93602848       0.10462183       0.00005400      -0.00014911       0.01233108      -0.00537140
Ti       2.93604638       2.94098896      27.40115477      -0.00011019       0.01334931      -0.00350400
Ti       0.00002175       0.10427207       0.00005594       0.00025445       0.01034005      -0.00533523
Ti       0.00004728       2.93892662       0.00000172       0.00013394       0.01110833      -0.00349435
Ti       4.40280729       5.03236792       1.41974384       0.00228986      -0.01549332      -0.00595092
Ti       1.46926560       5.03238250       1.41974082      -0.00239019      -0.01564845      -0.00603642
Ti       4.40735136       1.31976880       2.03998250       0.00031488       0.00981203      -0.00969288
Ti       1.46471812       1.31976054       2.03996664      -0.00038823       0.00971286      -0.00949144
Ti       2.93602547       3.41261292       3.21786207      -0.00020567       0.00905636       0.00330606
Ti       0.00003574       3.41517285       3.22214061       0.00003870       0.01224303       0.00597084
Ti       2.93603787       6.23439797       3.64150874      -0.00014491       0.00081234       0.00399767
Ti       0.00003007       6.23273510       3.63528343       0.00006817      -0.00096669       0.00322846
Ti       1.46994284       1.50446902       4.86461293       0.00177985       0.00360316       0.00739275
Ti       4.40210023       1.50444988       4.86461395      -0.00170082       0.00364672       0.00739711
Ti       1.47055638       4.44345310       5.46492203      -0.00255517       0.00318603       0.00637433
Ti       4.40146215       4.44345128       5.46491670       0.00267026       0.00324393       0.00649115
Ti       2.93599021       6.60404694       6.62465524       0.00008159       0.00761789       0.00653198
Ti       0.00001452       6.60602664       6.61688368      -0.00007737       0.00334136       0.00502799
Ti       2.93601669       2.53559213       7.15012396       0.00000532      -0.00136718       0.00623038
Ti       0.00001784       2.54054630       7.13582643      -0.00000762       0.00186509       0.00244718
Ti       4.40892251       4.71267627       8.30949334       0.00295523      -0.01078101       0.00222581
Ti       1.46307597       4.71267831       8.30949304      -0.00296111      -0.01083189       0.00217426
Ti       4.40439073       0.72546368       8.91044515      -0.00039819       0.00180640       0.00338889
Ti       1.46760083       0.72545988       8.91043561       0.00049660       0.00185035       0.00355689
Ti       5.87199718       2.91122493      10.05544851       0.00000889       0.00399125       0.00162616
Ti       2.93599767       2.87517735      10.13025839      -0.00002633       0.00091167       0.00845371
Ti       0.00000599       5.74455626      10.62571130      -0.00003577      -0.00165489       0.00134972
Ti       2.93600723       5.69757243      10.56224348      -0.00000640      -0.00724446       0.00772274
Ti       1.43006306       0.95079464      11.74840630       0.00363284      -0.00381221      -0.00240164
Ti       4.44194048       0.95080112      11.74840843      -0.00360017      -0.00389314      -0.00240074
Ti       1.42255685       4.00116663      12.31377101       0.01147303      -0.00298608      -0.00073037
Ti       4.44942965       4.00116948      12.31377400      -0.01140187      -0.00294474      -0.00066586
Ti       2.93600270       1.98819694      13.70058098       0.00004031      -0.01912638       0.00348673
Cu       5.87199782       2.11739060      13.70058496      -0.00001572      -0.00267068       0.00103642
Ti       2.93599583       6.05330351      13.70056779       0.00004883      -0.00892388       0.00206857
Ti       5.87198895       6.17816985      13.70057330      -0.00003581      -0.01512242       0.00201245
Ti       4.44945455       4.00116163      15.08737366      -0.01156265      -0.00282801       0.00284960
Ti       1.42254890       4.00115921      15.08737333       0.01145475      -0.00270466       0.00275073
Ti       4.44194781       0.95078909      15.65274105      -0.00350053      -0.00414937       0.00129322
Ti       1.43005167       0.95078425      15.65274374       0.00353602      -0.00412801       0.00121776
Ti       2.93600708       5.69758439      16.83891270       0.00006707      -0.00783606      -0.01409746
Ti       0.00000562       5.74453704      16.77544460      -0.00009875      -0.00176420      -0.00733593
Ti       2.93600398       2.87515061      17.27088326       0.00011275       0.00121675      -0.01543654
Ti       0.00000213       2.91123569      17.34571310      -0.00007405       0.00342278      -0.00931058
Ti       4.40439013       0.72544097      18.49070990      -0.00031006       0.00133334      -0.01078200
Ti       1.46763142       0.72544277      18.49070166       0.00032870       0.00126215      -0.01069275
Ti       4.40892419       4.71268892      19.09164882       0.00301633      -0.01077816      -0.00799107
Ti       1.46308604       4.71268651      19.09164936      -0.00295641      -0.01072868      -0.00787408
Ti       0.00001878       2.54053140      20.26526973       0.00009223       0.00176582      -0.00277686
Ti       2.93602293       2.53557050      20.25100260      -0.00005111      -0.00127366      -0.00651095
Ti       0.00001539       6.60600814      20.78422965       0.00008148       0.00384242      -0.00158514
Ti       2.93601266       6.60402980      20.77647020      -0.00011032       0.00812915      -0.00317152
Ti       1.47057589       4.44346222      21.93621156      -0.00269962       0.00264936       0.00170302
Ti       4.40146115       4.44344922      21.93621876       0.00278275       0.00270791       0.00168550
Ti       1.46995478       1.50445012      22.53653618       0.00153911       0.00425475       0.00224875
Ti       4.40209574       1.50445019      22.53653315      -0.00152504       0.00414491       0.00212221
Ti       2.93603777       6.23436886      23.75965631      -0.00031111       0.00157520       0.00409962
Ti       0.00003592       6.23272070      23.76586950       0.00018947      -0.00017226       0.00473499
Ti       2.93603000       3.41261840      24.18334766      -0.00041220       0.00905069       0.00360132
Ti       0.00003578       3.41519387      24.17905710       0.00023335       0.01193776       0.00115131
Ti       4.40733116       1.31973413      25.36121351       0.00048761       0.01048193       0.00862220
Ti       1.46472001       1.31971234      25.36123308      -0.00043931       0.01056887       0.00849496
Ti       4.40280940       5.03238761      25.98145476       0.00213927      -0.01621525       0.00127107
Ti       1.46925893       5.03239880      25.98145353      -0.00209185      -0.01612733       0.00129565
