64
Lattice="5.871999 0.0 0.0 0.0 6.890708 0.0 0.0 0.0 27.401158" Properties=species:S:1:pos:R:3:forces:R:3 job_name=T1m-Zn-Zn-34-d-0.00 GB_type=T1m element=Zn system=Zn-34-d-0.00 distance=0.0 energy=-488.62923701 stress_kbar_3x3="_JSON [[-10.92427432, 0.00119827, 0.00035277], [0.00119822, -11.31188212, 0.00016016], [0.00035277, 0.00016018, -21.03774201]]" pbc="T T T"
Ti       2.93605777       0.10055061      27.40096306       0.00004283       0.01186200      -0.00194963
Ti       2.93602499       2.93892556      -0.00003549       0.00005045      -0.01374075      -0.00143876
Ti       5.87197754       0.09937945      27.40099378       0.00003941       0.01082626      -0.00183275
Ti       0.00003209       2.93930468      27.40109354      -0.00004019      -0.01349701      -0.00134107
Ti       4.40486794       5.02713330       1.41497768       0.00067278      -0.01154621       0.01177942
Ti       1.46715577       5.02711043       1.41505182      -0.00071757      -0.01129262       0.01129746
Ti       4.40353574       1.31715446       2.03353062       0.00028257       0.00312610       0.00293742
Ti       1.46855249       1.31712361       2.03349982      -0.00035049       0.00322364       0.00320179
Ti       2.93604477       3.40784217       3.21378695      -0.00013726      -0.00652176       0.00527123
Ti       0.00000889       3.40695209       3.21249272       0.00015030      -0.00296124       0.00461527
Ti       2.93602050       6.22748856       3.62657846      -0.00001666      -0.00616632       0.00522201
Ti       0.00001142       6.22621979       3.62718505       0.00005168      -0.00695168       0.00439081
Ti       1.46736484       1.48464758       4.84993685       0.00183799      -0.00221850      -0.00346422
Ti       4.40466557       1.48464631       4.84991907      -0.00178791      -0.00220108      -0.00310429
Ti       1.46759350       4.43813068       5.45385768       0.00019546      -0.00316401      -0.00699439
Ti       4.40444891       4.43816073       5.45382550      -0.00021708      -0.00322452      -0.00655802
Ti       2.93601081       6.58642926       6.61489427       0.00025238       0.00053717      -0.00137981
Ti       0.00002736       6.58292064       6.61829521      -0.00027168      -0.00549641      -0.00237925
Ti       2.93597947       2.51574810       7.12364456       0.00032479      -0.00255448       0.00382496
Ti       0.00003495       2.51566594       7.11444983      -0.00039551       0.00042904      -0.00123205
Ti       4.39454104       4.66030364       8.28200479      -0.00240987      -0.00171558       0.00827789
Ti       1.47746784       4.66027434       8.28202557       0.00239263      -0.00142146       0.00854719
Ti       4.40200857       0.73862527       8.88171984      -0.00542758       0.00598818       0.00924073
Ti       1.47000669       0.73867345       8.88163741       0.00549658       0.00575008       0.00925361
Ti      -0.00000737       2.88127725      10.12922466      -0.00010775       0.00397587       0.00736968
Ti       2.93601412       2.88117364      10.15436284       0.00016844       0.00147389       0.00524685
Ti       5.87193042       5.69665135      10.47760348      -0.00002602       0.00510859       0.00769273
Ti       2.93610733       5.70855669      10.49975156       0.00000757      -0.00139690       0.00231055
Ti       1.42140309       0.89957685      11.70569801      -0.00182975       0.00338560      -0.00685702
Ti       4.45053735       0.89962482      11.70582801       0.00173975       0.00347407      -0.00691422
Ti       1.49463228       4.11377257      12.29987637       0.00495360       0.01401167      -0.00430069
Ti       4.37745030       4.11371601      12.29999195      -0.00478939       0.01398292      -0.00497292
Ti       2.93564298       2.06492785      13.70039717      -0.00012328       0.01694893      -0.00046566
Ti       0.00022801       2.22069710      13.70041429       0.00026514      -0.00184983      -0.00042167
Zn       2.93609074       6.16599869      13.70054409      -0.00008683      -0.00357742      -0.00003399
Ti       0.00007894       6.28344934      13.70045736       0.00001270       0.00131151       0.00001118
Ti       4.37754437       4.11360235      15.10130471      -0.00519800       0.01416528       0.00486849
Ti       1.49456014       4.11368526      15.10133062       0.00505253       0.01408234       0.00429194
Ti       4.45044707       0.89970936      15.69525650       0.00181131       0.00378279       0.00692567
Ti       1.42149492       0.89970335      15.69531217      -0.00196698       0.00376487       0.00704055
Ti       2.93602599       5.70864573      16.90165385       0.00040818      -0.00213117      -0.00221777
Ti      -0.00000336       5.69677714      16.92370515      -0.00031495       0.00473241      -0.00749910
Ti       2.93599076       2.88119438      17.24689822       0.00033927       0.00193425      -0.00490947
Ti       0.00000514       2.88136101      17.27194270      -0.00024159       0.00389009      -0.00666359
Ti       4.40198909       0.73866327      18.51939190      -0.00517552       0.00625573      -0.00943340
Ti       1.47004113       0.73871281      18.51936073       0.00512419       0.00563841      -0.00865190
Ti       4.39460930       4.66029733      19.11914618      -0.00276758      -0.00168068      -0.00912034
Ti       1.47741221       4.66030718      19.11906881       0.00272504      -0.00162837      -0.00859044
Ti       0.00006088       2.51565099      20.28664333      -0.00024142       0.00038373       0.00008892
Ti       2.93601552       2.51570784      20.27743591       0.00014097      -0.00208918      -0.00502237
Ti       0.00001542       6.58294743      20.78286689      -0.00001206      -0.00506074       0.00113699
Ti       2.93600514       6.58655377      20.78624696      -0.00001837      -0.00008361       0.00017914
Ti       1.46760064       4.43817514      21.94739699       0.00027332      -0.00325289       0.00684389
Ti       4.40444721       4.43822202      21.94735936      -0.00024998      -0.00357767       0.00754391
Ti       1.46736442       1.48465941      22.55142353       0.00174376      -0.00163435       0.00441286
Ti       4.40464566       1.48465568      22.55135279      -0.00165068      -0.00169443       0.00498815
Ti       2.93599123       6.22756459      23.77475548       0.00031918      -0.00562964      -0.00251187
Ti       0.00005514       6.22622254      23.77420044      -0.00037910      -0.00625497      -0.00229787
Ti       2.93596779       3.40790167      24.18746683       0.00052576      -0.00736487      -0.00274413
Ti       0.00005070       3.40705595      24.18879012      -0.00044889      -0.00439331      -0.00229822
Ti       4.40357098       1.31726096      25.36771922       0.00017832       0.00390063      -0.00406891
Ti       1.46849119       1.31724832      25.36771007      -0.00018644       0.00367197      -0.00335824
Ti       4.40491046       5.02713289      25.98599977       0.00065282      -0.01179603      -0.01217434
Ti       1.46710371       5.02714144      25.98599643      -0.00064533      -0.01184835      -0.01160888
