64
Lattice="5.871999 0.0 0.0 0.0 6.890708 0.0 0.0 0.0 27.401158" Properties=species:S:1:pos:R:3:forces:R:3 job_name=T1m-Cu-Cu-40-d-3.20 GB_type=T1m element=Cu system=Cu-40-d-3.20 distance=3.2 energy=-491.33850235 stress_kbar_3x3="_JSON [[-12.45397293, 0.00083463, -0.00027424], [0.0008346, -16.43798863, -0.59514148], [-0.00027429, -0.59514147, -25.69416121]]" pbc="T T T"
Ti       2.93604812       0.02173617       0.17596652      -0.00021948      -0.00226109      -0.00418129
Ti       2.93602772       2.83882838      27.21016428      -0.00013602      -0.00814705      -0.01174578
Ti       5.87197314       0.01833445       0.18174542       0.00025147      -0.00141784      -0.00648423
Ti       5.87199006       2.84076732      27.20463159       0.00016991      -0.00797183      -0.01054303
Ti       4.39957132       4.83344516       1.38387946      -0.00017197      -0.00032338       0.00992951
Ti       1.47244588       4.83344087       1.38389037       0.00023246      -0.00022132       0.00965142
Ti       4.40480727       1.58611407       2.00680976      -0.00012510      -0.00471212       0.00870988
Ti       1.46721090       1.58612200       2.00680752       0.00022881      -0.00479068       0.00859428
Ti       2.93601663       3.56255696       3.39229603      -0.00006839       0.00480597       0.00897650
Ti       0.00002322       3.56265767       3.39075080       0.00006563       0.00645676       0.01109132
Ti       2.93602831       6.39654241       3.45361901      -0.00009372      -0.00642977       0.00144879
Ti       0.00001266       6.39953062       3.45389690       0.00008722      -0.00770094       0.00126546
Ti       1.46727517       1.60741003       4.84562400       0.00007309      -0.00752221      -0.00292058
Ti       4.40475344       1.60742127       4.84562581       0.00003069      -0.00753418      -0.00287054
Ti       1.47033184       4.73023154       5.46675278      -0.00016737       0.01223935      -0.01006243
Ti       4.40171866       4.73024154       5.46671604       0.00011596       0.01211563      -0.00985503
Ti       2.93602397       6.83706413       6.63097219       0.00004190       0.00539691       0.00056060
Ti       0.00002486       6.83481128       6.62681191      -0.00004946       0.00642220       0.00028068
Ti       2.93604125       2.75777970       7.08038570      -0.00018910       0.00330651      -0.00464782
Ti       0.00001738       2.75965951       7.08710529       0.00004860       0.00189428      -0.00319336
Ti       4.40590867       4.92432699       8.29327231       0.00022843       0.00806592      -0.00362511
Ti       1.46612552       4.92432923       8.29330945      -0.00019449       0.00799329      -0.00377657
Ti       4.40589383       0.95095305       8.89521106       0.00007004       0.00454184       0.00253927
Ti       1.46615347       0.95095102       8.89524386      -0.00000899       0.00457360       0.00237072
Ti       0.00002723       3.11460246      10.05708787      -0.00009181       0.00292527       0.00542437
Ti       2.93600619       3.11732116      10.04725225       0.00011559       0.00044238       0.00234457
Ti       0.00001829       5.93127540      10.58312625      -0.00007572       0.01117229       0.00563116
Ti       2.93600814       5.93533438      10.57147385       0.00011937       0.01104941       0.00310292
Ti       1.47626829       1.21629884      11.73674311      -0.00019144       0.00111505       0.00441824
Ti       4.39574442       1.21630360      11.73672881       0.00029890       0.00106065       0.00447282
Ti       1.46972995       4.12276363      12.34066056      -0.00161396       0.00624594       0.00215759
Ti       4.40230150       4.12277466      12.34066413       0.00168359       0.00624183       0.00213941
Ti       2.93598737       2.25293968      14.04937389       0.00035943       0.00271890      -0.00169550
Ti       0.00004859       2.20220529      13.97970869      -0.00032959       0.00121125      -0.00166951
Ti       2.93601311       6.30985740      13.49681067       0.00019486       0.00796063      -0.00457308
Ti       0.00002678       6.27285474      13.56989708      -0.00021642       0.00679069      -0.00944983
Ti       4.37271853       4.33842708      15.17509498      -0.00220182       0.00412111       0.00937697
Ti       1.49931718       4.33840849      15.17512459       0.00235037       0.00416179       0.00912055
Ti       4.35965715       0.53411130      15.74449846      -0.00144252       0.00287861      -0.00205256
Ti       1.51237588       0.53410418      15.74445350       0.00145040       0.00291297      -0.00190422
Cu       2.93600525       5.54324112      17.08838120      -0.00027232       0.00524185       0.00109145
Ti       0.00006957       5.41609483      17.11007318      -0.00060610      -0.01526231      -0.00508587
Ti       2.93599610       2.71277047      17.14938443       0.00020818       0.01436194      -0.00819992
Ti       0.00003605       2.58918360      17.13274852      -0.00023475       0.01236613      -0.00114319
Ti       4.35450867       0.54382071      18.51339068       0.00337181       0.00250669      -0.00454867
Ti       1.51753838       0.54379311      18.51334049      -0.00335327       0.00277972      -0.00428766
Ti       4.35653077       4.42134095      19.07426341       0.00087415      -0.01137028      -0.00614537
Ti       1.51547915       4.42130948      19.07424179      -0.00079655      -0.01116818      -0.00587194
Ti       0.00002517       2.27584626      20.25179872      -0.00014999      -0.00508737       0.00347968
Ti       2.93599525       2.31668718      20.19156549       0.00015754       0.00000232       0.00686940
Ti       0.00000812       6.34830957      20.69942715      -0.00007150      -0.00490508       0.01177986
Ti       2.93601176       6.38809374      20.78099782       0.00008889      -0.00832389       0.00892129
Ti       1.46855152       4.19921643      21.91086132       0.00208499      -0.00541524       0.00483153
Ti       4.40346416       4.19921751      21.91089470      -0.00199451      -0.00546958       0.00455235
Ti       1.47210698       1.31425754      22.51230231       0.00276897      -0.00858871       0.00204720
Ti       4.39988962       1.31429336      22.51229894      -0.00272967      -0.00872209       0.00202137
Ti       2.93601223       6.03372007      23.69194408       0.00003193      -0.00334508      -0.00149504
Ti      -0.00000057       6.02798018      23.67354604       0.00002728      -0.00699863      -0.00304445
Ti       2.93602509       3.21580971      24.20272308      -0.00007319      -0.00831034       0.00121346
Ti       5.87198747       3.21389446      24.19725364       0.00009687      -0.00596532      -0.00408758
Ti       4.40651366       1.06022804      25.35350145      -0.00093220      -0.00763829      -0.00325805
Ti       1.46552186       1.06026496      25.35348227       0.00086546      -0.00780356      -0.00296586
Ti       4.40633173       4.99569244      25.95923676       0.00081633      -0.00230063      -0.00762377
Ti       1.46567963       4.99568925      25.95921177      -0.00080772      -0.00237269      -0.00740676
