64
Lattice="5.871999 0.0 0.0 0.0 6.890708 0.0 0.0 0.0 27.401158" Properties=species:S:1:pos:R:3:forces:R:3 job_name=T1m-V-V-39-d-2.03 GB_type=T1m element=V system=V-39-d-2.03 distance=2.03 energy=-495.9294542 stress_kbar_3x3="_JSON [[-12.18613522, -0.00069797, -0.00046868], [-0.00069795, -12.06919964, -2.89108143], [-0.00046869, -2.8910814, -22.82461161]]" pbc="T T T"
Ti       2.94221979       0.09792555      27.39137594      -0.00006916       0.00822143       0.01747868
Ti       2.93714654       2.93442924      27.38577760       0.00058543      -0.00670701       0.01055254
Ti       5.86583922       0.09789271      27.39134587       0.00006048       0.00821387       0.01746492
Ti       5.87083099       2.93435516      27.38593060      -0.00045457      -0.00658117       0.01002947
Ti       4.40404860       5.02672480       1.40009561      -0.00007959      -0.00512152       0.02407819
Ti       1.46799247       5.02748844       1.40161985       0.00004426      -0.00688063       0.02424909
Ti       4.40406110       1.32455222       2.02225135      -0.00010989       0.00653451       0.02555660
Ti       1.46796035       1.32342023       2.01902807       0.00011194       0.00555432       0.02119052
Ti       2.93492777       3.41802276       3.20795834       0.00127682      -0.00505027       0.01886289
Ti       0.00109573       3.41795453       3.20802197      -0.00119881      -0.00458356       0.01870300
Ti       2.93626461       6.23349147       3.61299424      -0.00064904       0.00635392       0.01747558
Ti       5.87178111       6.23340509       3.61304389       0.00059996       0.00678066       0.01736221
Ti       1.46805004       1.50191558       4.84435081      -0.00012115       0.00339379      -0.00074703
Ti       4.40399257       1.50303942       4.84498538       0.00012373       0.00448799      -0.00729913
Ti       1.46805189       4.45155682       5.45205469      -0.00010747       0.00583698      -0.01042687
Ti       4.40400153       4.45206294       5.45221588       0.00009483       0.00391879      -0.00845141
Ti       2.93884553       6.61283611       6.61471974      -0.00144837       0.00784225      -0.01708526
Ti       5.86923529       6.61286830       6.61471704       0.00128375       0.00764197      -0.01707052
Ti       2.93845581       2.54081150       7.12610411      -0.00097717       0.00102901      -0.02160917
Ti       5.86955759       2.54085051       7.12602887       0.00106765       0.00076453      -0.02142132
Ti       4.40404433       4.71354162       8.29078721      -0.00014036       0.01206454      -0.00888157
Ti       1.46798901       4.70764680       8.29092532       0.00008480       0.00870957      -0.01063442
Ti       4.40398494       0.74645391       8.90639472       0.00007195       0.00000047      -0.00292289
Ti       1.46799578       0.74722545       8.88161195       0.00001505       0.00315529      -0.00358996
Ti       5.86991150       2.91475295      10.08494932       0.00059938       0.01057361       0.00164820
Ti       2.93806878       2.91468654      10.08500640      -0.00049125       0.01091340       0.00161012
Ti       5.86324216       5.74422465      10.55657140      -0.00050439       0.00564466       0.01582407
Ti       2.94473871       5.74422451      10.55654890       0.00066529       0.00560850       0.01599911
Ti       1.46802725       0.97838817      11.70520281      -0.00007859       0.00076034       0.02082625
Ti       4.40400770       0.98998366      11.74568294      -0.00011502       0.00041304       0.01465131
Ti       1.46797166       4.05135122      12.31144082      -0.00013430       0.01188225       0.00851303
Ti       4.40405474       4.06181094      12.32943122      -0.00002828       0.00975375       0.01424185
Ti       2.88859055       2.12216137      13.86444811       0.00077860      -0.00671113       0.00558541
Ti       0.04747650       2.12203837      13.86454515      -0.00071645      -0.00657849       0.00596228
Ti       2.92191199       6.18578702      13.69427348      -0.00432566       0.00321285      -0.00469855
Ti       0.01407836       6.18570160      13.69424014       0.00435849       0.00344553      -0.00434185
Ti       4.40400792       4.15548530      15.12751532       0.00037803       0.00252950      -0.04005962
Ti       1.46806880       4.14861002      15.10466963      -0.00046766       0.00353328      -0.03579346
Ti       4.40364555       0.83817902      15.75174921       0.00001295      -0.00595008      -0.03269023
V        1.46840424       0.80876759      15.71909717       0.00013468       0.00035952      -0.02985204
Ti       2.90008091       5.70609111      16.89831623      -0.00058400      -0.00306999      -0.00731811
Ti       0.03595972       5.70628112      16.89830182       0.00057517      -0.00311028      -0.00741395
Ti       2.92571553       2.83170658      17.22745256      -0.00346003      -0.00367128      -0.00680196
Ti       0.01029254       2.83164039      17.22747360       0.00343229      -0.00372825      -0.00705735
Ti       4.40394860       0.73008273      18.52700538       0.00006457      -0.00661798       0.02766950
Ti       1.46802583       0.70571985      18.47553954       0.00002710      -0.00214782       0.01667697
Ti       4.40402881       4.62526709      19.07777799       0.00018634      -0.00638945       0.03747730
Ti       1.46801171       4.63942743      19.10036217      -0.00027585      -0.00847044       0.03485877
Ti       0.00485821       2.50246302      20.25166404      -0.00233196      -0.00566937       0.03735975
Ti       2.93113678       2.50239513      20.25160760       0.00238754      -0.00517801       0.03765502
Ti       0.00726414       6.57217549      20.76031444      -0.00204259      -0.01237633       0.03204461
Ti       2.92875834       6.57215751      20.76032254       0.00199912      -0.01234525       0.03189994
Ti       1.46802737       4.41918589      21.94061985       0.00000478      -0.00205032       0.00220562
Ti       4.40399178       4.42339996      21.92242273       0.00008365      -0.00111920      -0.00188353
Ti       1.46802685       1.48007941      22.54382236      -0.00007466      -0.00806962      -0.01387785
Ti       4.40399290       1.47830302      22.52873535       0.00013953      -0.00789306      -0.02037117
Ti       2.93712816       6.21925530      23.76644068      -0.00073397      -0.00191382      -0.04101091
Ti       5.87091480       6.21925577      23.76648713       0.00068914      -0.00194897      -0.04122715
Ti       2.93681385       3.40225385      24.18159938      -0.00149585      -0.00615039      -0.04160949
Ti       5.87128754       3.40223321      24.18158649       0.00122507      -0.00595936      -0.04162724
Ti       4.40405678       1.31122375      25.35244078      -0.00006255      -0.00802894      -0.02557175
Ti       1.46800316       1.31010236      25.36586551       0.00011102      -0.00635906      -0.03314800
Ti       4.40403299       5.02528231      25.97543475      -0.00008080       0.00335354      -0.00756425
Ti       1.46801722       5.02298624      25.97806799       0.00008606       0.00394341      -0.01165480
