64
Lattice="5.871999 0.0 0.0 0.0 6.890708 0.0 0.0 0.0 27.401158" Properties=species:S:1:pos:R:3:forces:R:3 job_name=T1m-Zr-Zr-47-d-5.43 GB_type=T1m element=Zr system=Zr-47-d-5.43 distance=5.43 energy=-495.68157439 stress_kbar_3x3="_JSON [[-2.86209465, -0.00038271, 0.00072498], [-0.00038273, -2.97271775, 0.13111911], [0.00072496, 0.13111912, -10.61464676]]" pbc="T T T"
Ti       2.93024343       0.10306555       0.01555556      -0.00266921      -0.00965630       0.00128937
Ti       2.93562995       2.94279282       0.01338735       0.00003570       0.00273167       0.00316740
Ti       0.00579729       0.10302509       0.01554160       0.00269056      -0.00969807       0.00134743
Ti       0.00045642       2.94276679       0.01339292       0.00000611       0.00285236       0.00314738
Ti       4.40400172       5.03014118       1.42705555       0.00005515       0.00329217      -0.00212122
Ti       1.46802087       5.02831323       1.41527218      -0.00001892       0.00616028      -0.00353220
Ti       4.40403860       1.32297408       2.03849460      -0.00001551      -0.00219167      -0.00469635
Ti       1.46803525       1.32055042       2.03808096       0.00001714      -0.00348415      -0.00316649
Ti       2.93436834       3.41155354       3.21133580       0.00020244      -0.00116065       0.00149761
Ti       0.00172541       3.41153155       3.21131029      -0.00022631      -0.00099116       0.00162050
Ti       2.93431910       6.23006957       3.62294653      -0.00012115       0.00053931      -0.00309940
Ti       0.00172418       6.23007281       3.62294696       0.00014483       0.00048178      -0.00316223
Ti       1.46805402       1.49252253       4.84080597      -0.00000966       0.00045834      -0.00038715
Ti       4.40402264       1.49307608       4.84259654      -0.00013062      -0.00055507      -0.00216059
Ti       1.46803380       4.43982347       5.43786902      -0.00006576      -0.00196916       0.00490640
Ti       4.40399270       4.44102772       5.43847376       0.00003555      -0.00189189       0.00447640
Ti       2.93610248       6.59448404       6.59622477       0.00058407      -0.00139085       0.00152253
Ti      -0.00007336       6.59446597       6.59625037      -0.00057720      -0.00137757       0.00140351
Ti       2.93612670       2.52106526       7.09672271       0.00014980       0.00297868      -0.00002288
Ti      -0.00007068       2.52106966       7.09670972      -0.00024559       0.00304596      -0.00000895
Ti       4.40400870       4.67805530       8.25605260      -0.00003377       0.00189586      -0.00428208
Ti       1.46801513       4.67735889       8.25307657       0.00005103       0.00237111      -0.00571313
Ti       4.40399935       0.73004392       8.85851225      -0.00008383       0.00124700      -0.00424554
Ti       1.46802774       0.73234956       8.85149749       0.00006014      -0.00008404      -0.00859914
Ti       0.00255196       2.88714349      10.07119641      -0.00116871      -0.00248340      -0.00560717
Ti       2.93342000       2.88713897      10.07117900       0.00116390      -0.00250045      -0.00556175
Ti       5.87125768       5.70655950      10.48425032      -0.00167500       0.00152304      -0.00819286
Ti       2.93672338       5.70660623      10.48422259       0.00169173       0.00145692      -0.00819650
Ti       1.46794684       0.90641898      11.65267055       0.00000761       0.00484282      -0.00068521
Ti       4.40398317       0.90890192      11.66932957       0.00000969       0.00702510       0.00696448
Ti       1.46798458       4.08843077      12.28285965      -0.00001955      -0.00750703       0.01176005
Ti       4.40399876       4.08095221      12.25762731      -0.00001835      -0.00516737       0.01156685
Ti       2.90305317       2.12450036      13.68234220      -0.00657091       0.00675025       0.00312059
Ti       0.03294292       2.12447891      13.68231517       0.00657575       0.00676548       0.00308093
Ti       2.92843076       6.17233600      13.67824044      -0.00077641      -0.00013565      -0.00030196
Ti       0.00752514       6.17234493      13.67823429       0.00070290      -0.00006532      -0.00034341
Ti       4.40399372       4.08190872      15.06541994       0.00002577      -0.00811626      -0.01582802
Ti       1.46800208       4.10031418      15.10436060      -0.00003614      -0.00466347      -0.01297024
Ti       4.40399614       0.92546907      15.68456920      -0.00005101       0.00592328      -0.01678383
Ti       1.46796600       0.89737378      15.72581259       0.00002632       0.00203341      -0.01116066
Ti       2.98081276       5.71989104      16.83346640       0.00004752      -0.00314237      -0.00510675
Ti       5.82721359       5.71990737      16.83343568      -0.00004857      -0.00331061      -0.00491315
Ti       2.98130022       2.85839288      17.26853526      -0.00003551      -0.00212910      -0.00523981
Ti       5.82668274       2.85840632      17.26852128       0.00009882      -0.00202970      -0.00504049
Ti       4.40402085       0.70064205      18.51393210      -0.00003213       0.00256660      -0.00979544
Ti       1.46803969       0.79082148      18.55310011      -0.00013318       0.00245219      -0.00335654
Ti       4.40399593       4.65758403      19.10435666       0.00036638       0.00288885       0.00412693
Zr       1.46799112       4.66125800      19.11889009      -0.00007739      -0.00396975       0.01275697
Ti       5.83108773       2.47923085      20.33736318       0.00244976       0.01003038       0.00345885
Ti       2.97694826       2.47917646      20.33735550      -0.00226914       0.00965987       0.00364725
Ti       5.85830155       6.62162245      20.84747001      -0.00190118      -0.00514569       0.00342295
Ti       2.94976258       6.62166284      20.84752427       0.00188938      -0.00498483       0.00347270
Ti       1.46805986       4.43990319      22.03180792      -0.00023120      -0.00242809       0.00154881
Ti       4.40404123       4.43187536      21.95957357      -0.00001390      -0.00814036       0.01187499
Ti       1.46802281       1.49665109      22.59658032       0.00017490       0.00015482       0.00984463
Ti       4.40402395       1.50722617      22.61641602      -0.00008502       0.00754922       0.01711313
Ti       2.94307404       6.22960700      23.81271637       0.00477125       0.00271867       0.00580580
Ti       5.86501803       6.22960512      23.81271621      -0.00477797       0.00269317       0.00581699
Ti       2.95026107       3.41770809      24.22271423       0.00649383      -0.00427037      -0.00052435
Ti       5.85779827       3.41770114      24.22271435      -0.00648559      -0.00412474      -0.00054556
Ti       4.40402518       1.31822653      25.40170300       0.00000489      -0.00181177      -0.00230587
Ti       1.46803229       1.31975569      25.39033539       0.00002609      -0.00115156       0.00251798
Ti       4.40403422       5.03320737      26.01940242       0.00005223       0.00392249       0.00901667
Ti       1.46803149       5.03245306      25.99936778      -0.00000685       0.00271738       0.01236086
