64
Lattice="5.871999 0.0 0.0 0.0 6.890708 0.0 0.0 0.0 27.401158" Properties=species:S:1:pos:R:3:forces:R:3 job_name=T1m-V-V-45-d-4.84 GB_type=T1m element=V system=V-45-d-4.84 distance=4.84 energy=-495.78076721 stress_kbar_3x3="_JSON [[-13.78349579, -0.00021018, 0.00030463], [-0.00021016, -13.69791909, -2.72679432], [0.00030464, -2.72679435, -21.58418898]]" pbc="T T T"
Ti       2.94655703       0.08631902      27.39230474       0.00091855      -0.00793184       0.00673381
Ti       2.93842876       2.92137097      27.37821179       0.00062922      -0.00030638      -0.00138193
Ti       5.86146185       0.08634996      27.39229000      -0.00080570      -0.00809217       0.00683872
Ti       5.86958718       2.92134926      27.37822582      -0.00065296      -0.00041942      -0.00135321
Ti       4.40404031       5.01265649       1.39960976       0.00015171       0.00313370      -0.00679231
Ti       1.46799488       5.01361407       1.39993576      -0.00012309       0.00257448      -0.00567234
Ti       4.40404087       1.32115723       2.02283661       0.00022849      -0.00419569       0.00467078
Ti       1.46798457       1.31873734       2.01501414      -0.00018683      -0.00416858       0.00209366
Ti       2.93411682       3.41112375       3.21196361       0.00197869       0.00350831      -0.00541831
Ti       0.00194114       3.41112141       3.21193275      -0.00195405       0.00355578      -0.00544278
Ti       2.93614865       6.22884771       3.60746722       0.00097123       0.01007764      -0.00746580
Ti       5.87190476       6.22885257       3.60749773      -0.00093395       0.01003065      -0.00769165
Ti       1.46802664       1.49544212       4.83458351       0.00010212      -0.00083640       0.00489204
Ti       4.40401908       1.49584827       4.83747185      -0.00004806      -0.00027638       0.00358076
Ti       1.46800731       4.45234263       5.44392445       0.00017564       0.00793787       0.00147762
Ti       4.40405081       4.45341405       5.44406752      -0.00013218       0.00709552       0.00330021
Ti       2.93731608       6.61243583       6.60710494       0.00115934       0.00528023       0.00037777
Ti       5.87070909       6.61243053       6.60706334      -0.00115318       0.00503811       0.00072664
Ti       2.93683448       2.53940477       7.10696048       0.00148700       0.00297998       0.00253780
Ti       5.87119531       2.53938599       7.10696475      -0.00143357       0.00329053       0.00242818
Ti       4.40393281       4.70603895       8.27556692      -0.00025440       0.00439449      -0.00166862
Ti       1.46808211       4.70342564       8.27569238       0.00018937       0.00476895      -0.00173857
Ti       4.40393689       0.75701933       8.88556664      -0.00026916       0.00380667       0.00132668
Ti       1.46806768       0.75664803       8.87448264       0.00026226       0.00581542       0.00081028
Ti       5.87141636       2.91949927      10.08955827       0.00045660       0.00366117      -0.00268197
Ti       2.93659439       2.91955379      10.08951176      -0.00041514       0.00407445      -0.00293661
Ti       5.86769490       5.74399377      10.52168072       0.00074598       0.00276051      -0.00299965
Ti       2.94030355       5.74399780      10.52174196      -0.00065524       0.00242373      -0.00267251
Ti       1.46805592       0.96244036      11.69409749       0.00039984       0.00654876      -0.01201787
Ti       4.40395400       0.96528270      11.71295209      -0.00040656       0.00377492      -0.01254037
Ti       1.46810057       4.10029169      12.30939927       0.00024592       0.00434042      -0.00851737
Ti       4.40393685       4.10189280      12.31848173      -0.00047663       0.00418763      -0.00445392
Ti       2.91991880       2.16396123      13.77165379      -0.00091825       0.00983438       0.00234541
Ti       0.01608830       2.16410769      13.77167670       0.00084692       0.00971763       0.00211948
Ti       2.93166956       6.20966364      13.69274045      -0.00006125       0.00164750      -0.00647225
Ti       0.00437139       6.20974252      13.69273850       0.00004947       0.00140483      -0.00630185
Ti       4.40396636       4.16476208      15.15596770      -0.00018478       0.00149613       0.01597766
Ti       1.46803880       4.15402453      15.14681296       0.00008228      -0.00111166       0.01560208
Ti       4.40400455       0.86108197      15.72545093      -0.00021115      -0.00248949       0.00934985
Ti       1.46797126       0.87953152      15.77628989       0.00019867      -0.00034698       0.01357556
Ti       2.92517089       5.72830049      16.99746499      -0.00449545      -0.00047021       0.01941095
Ti       0.01086654       5.72827192      16.99752985       0.00443597      -0.00053829       0.01946399
Ti       2.91396295       2.85722869      17.29522799      -0.00276830      -0.00938508      -0.00420906
Ti       0.02201760       2.85720694      17.29523451       0.00281176      -0.00939427      -0.00413351
Ti       4.40405475       0.73741682      18.51870187       0.00016795       0.00487698       0.00339294
V        1.46802135       0.74943606      18.53137075      -0.00014099       0.00578796       0.00141759
Ti       4.40399451       4.59231686      19.12959974       0.00023782      -0.01725590       0.00376396
Ti       1.46800660       4.65028574      19.14612994      -0.00013900      -0.01173110       0.00169331
Ti       0.02642326       2.45823638      20.25882606       0.00006103      -0.01059773      -0.00465741
Ti       2.90964941       2.45826580      20.25885913      -0.00013899      -0.01056516      -0.00454367
Ti       0.02570944       6.56318980      20.73503919       0.00078977      -0.00599980      -0.00684911
Ti       2.91034317       6.56321317      20.73506166      -0.00086853      -0.00618080      -0.00688693
Ti       1.46799348       4.40013164      21.93719744      -0.00003467      -0.00141772      -0.00001639
Ti       4.40402520       4.41360708      21.92694979      -0.00002141      -0.00102058      -0.00319946
Ti       1.46801107       1.46132554      22.55093007      -0.00003949      -0.01178667      -0.00625166
Ti       4.40406885       1.45524074      22.52084808       0.00007266      -0.01267132      -0.00557431
Ti       2.93797381       6.19930171      23.75521530      -0.00035039      -0.00068082       0.00402555
Ti       5.87008599       6.19930515      23.75520682       0.00044116      -0.00082435       0.00392310
Ti       2.93869136       3.38648714      24.17100863       0.00027942       0.00129438       0.00424792
Ti       5.86934208       3.38645231      24.17100809      -0.00033349       0.00151074       0.00431536
Ti       4.40401959       1.29213017      25.33886211       0.00015084      -0.01855071      -0.00267918
Ti       1.46801940       1.29247692      25.35884606      -0.00007012      -0.01810605      -0.00249065
Ti       4.40403083       5.01470471      25.97261887       0.00006321       0.01289922      -0.00603455
Ti       1.46800066       5.01189756      25.97414149      -0.00011391       0.01182190      -0.00267388
