64
Lattice="5.871999 0.0 0.0 0.0 6.890708 0.0 0.0 0.0 27.401158" Properties=species:S:1:pos:R:3:forces:R:3 job_name=T1m-Cu-Cu-45-d-4.84 GB_type=T1m element=Cu system=Cu-45-d-4.84 distance=4.84 energy=-490.96598789 stress_kbar_3x3="_JSON [[-14.31738681, -0.00011834, 0.00044671], [-0.00011834, -17.76014194, 1.17125743], [0.00044672, 1.17125741, -22.99977704]]" pbc="T T T"
Ti       2.94284558       0.11100952      27.38556736       0.00516331       0.00232140       0.00254766
Ti       2.93767816       2.94249267      27.38563063       0.00165863      -0.00183950       0.00022659
Ti       5.86524509       0.11103142      27.38557593      -0.00515574       0.00230644       0.00256577
Ti       5.87040779       2.94250354      27.38561637      -0.00161812      -0.00186668       0.00011451
Ti       4.40404267       5.03221147       1.39843612      -0.00004210       0.00101645       0.00351724
Ti       1.46802938       5.03146346       1.40350790       0.00003855       0.00020513      -0.00065770
Ti       4.40402074       1.32099831       2.02453003       0.00001594      -0.00107245       0.00155856
Ti       1.46804220       1.32177383       2.02041112      -0.00003118      -0.00097948      -0.00154523
Ti       2.93565137       3.41413684       3.20501940      -0.00075516       0.00330452       0.00220476
Ti       0.00040649       3.41412208       3.20499757       0.00072448       0.00331258       0.00229876
Ti       2.93703930       6.22749760       3.61517812      -0.00023961       0.00014307       0.00429708
Ti       5.87099510       6.22750678       3.61517315       0.00029961       0.00013162       0.00410047
Ti       1.46801989       1.49107131       4.83603735       0.00001440       0.00288419       0.00142974
Ti       4.40401121       1.49306454       4.83742619      -0.00005877       0.00102848       0.00339933
Ti       1.46801306       4.44007947       5.44183958       0.00010307      -0.00240207       0.00103848
Ti       4.40399817       4.44076797       5.44729271       0.00002737      -0.00117270       0.00146237
Ti       2.93902149       6.59690935       6.61046597      -0.00008308       0.00295614      -0.00103191
Ti       5.86896617       6.59691282       6.61048092       0.00009533       0.00283662      -0.00104650
Ti       2.93845012       2.51810154       7.10932087      -0.00047221      -0.00267164       0.00116817
Ti       5.86956302       2.51809787       7.10932922       0.00042740      -0.00266382       0.00120702
Ti       4.40398775       4.67600867       8.27942713      -0.00005539      -0.00274798       0.00111895
Ti       1.46801549       4.67106312       8.26867255       0.00002318      -0.00097425       0.00187463
Ti       4.40400900       0.73166896       8.89889028      -0.00004088       0.00053047      -0.00429330
Ti       1.46800529       0.73620423       8.86772918      -0.00000764       0.00024992      -0.00001339
Ti       0.00245612       2.88990044      10.11118462       0.00218291      -0.00085428       0.00204913
Ti       2.93353205       2.88989922      10.11119495      -0.00217298      -0.00089226       0.00197380
Ti       5.86290778       5.70329923      10.50849198       0.00185810      -0.00499764       0.00481448
Ti       2.94508818       5.70331092      10.50850284      -0.00174289      -0.00513166       0.00485369
Ti       1.46799059       0.89436929      11.66808089       0.00006543      -0.00246640      -0.00279519
Ti       4.40396852       0.90793350      11.72781685      -0.00010670      -0.00126662      -0.00493467
Ti       1.46796909       4.10313041      12.33190086       0.00007276       0.00443185       0.00257920
Ti       4.40401170       4.08354326      12.30059516      -0.00007644       0.00043832      -0.00284560
Ti       2.85921207       2.12853420      13.72047759      -0.00263096       0.00337107      -0.00427623
Ti       0.07678801       2.12856173      13.72047991       0.00256262       0.00329770      -0.00425371
Ti       2.90976998       6.17067196      13.73174845       0.00041167      -0.00448389      -0.00011824
Ti       0.02618424       6.17065920      13.73173668      -0.00027731      -0.00423458      -0.00011787
Ti       4.40401453       4.09298374      15.14685245      -0.00003972       0.00994549       0.00890982
Ti       1.46798174       4.06236204      15.21022628       0.00000981       0.00488777       0.01598993
Ti       4.40399259       0.93098842      15.66964190       0.00009273      -0.00328304       0.00172992
Ti       1.46802724       0.92993941      15.82956995       0.00000981      -0.00178521       0.00073665
Ti       2.98701511       5.73862250      16.92798538       0.00136905      -0.00022899       0.01303594
Ti       5.82103200       5.73861619      16.92799627      -0.00148194      -0.00022967       0.01309105
Ti       2.92115464       2.85286750      17.34008199       0.00211976       0.00094332       0.01446471
Ti       0.01485958       2.85286876      17.34007552      -0.00205113       0.00083539       0.01442054
Ti       4.40400208       0.66027681      18.47054420       0.00002737       0.00009283       0.01168052
Cu       1.46800894       0.69513394      18.57199008      -0.00001650      -0.00254013      -0.00250908
Ti       4.40403656       4.61655178      19.14878457      -0.00022303       0.00095398       0.00110599
Ti       1.46799900       4.72987372      19.11398281       0.00009873      -0.00305242      -0.00395459
Ti       0.04817014       2.49411198      20.26585584      -0.00064835      -0.00213940      -0.00869986
Ti       2.88789159       2.49407418      20.26586582       0.00056244      -0.00176868      -0.00866298
Ti       0.01467652       6.60010234      20.76133981      -0.00158339       0.00393039      -0.00840842
Ti       2.92136096       6.60015051      20.76131879       0.00149225       0.00391786      -0.00834484
Ti       1.46801350       4.45828488      21.88667638       0.00004509      -0.00238632      -0.01102974
Ti       4.40403832       4.44486688      21.94205089       0.00007862       0.00223267      -0.00428584
Ti       1.46803589       1.50778376      22.55568858       0.00007226       0.00192757      -0.00736055
Ti       4.40402732       1.50626944      22.51519933      -0.00001797      -0.00050014      -0.01037162
Ti       2.93491721       6.22599643      23.74472745       0.00037308      -0.00258863      -0.00951629
Ti       0.00115344       6.22600278      23.74473561      -0.00033708      -0.00279353      -0.00953088
Ti       2.93193162       3.42420114      24.17204634       0.00065292       0.00112771      -0.00901345
Ti       0.00412564       3.42419686      24.17204373      -0.00056614       0.00103931      -0.00893615
Ti       4.40404795       1.31762997      25.33453597       0.00001733      -0.00244610      -0.00340654
Ti       1.46802134       1.32137974      25.35663390      -0.00006907      -0.00015742      -0.00521333
Ti       4.40404482       5.03882140      25.96711929      -0.00009569       0.00150778      -0.00114699
Ti       1.46803236       5.04012478      25.97703644      -0.00006886       0.00050957       0.00075523
