64
Lattice="5.088765 0.0 0.0 0.0 9.739025 0.0 0.0 0.0 22.303587" Properties=species:S:1:pos:R:3:forces:R:3 job_name=T2-Al-Al-47-d-4.86 GB_type=T2 element=Al system=Al-47-d-4.86 distance=4.86 energy=-492.05516704 stress_kbar_3x3="_JSON [[-1.46367423, 0.6902075, -0.14901413], [0.69020751, -17.38140055, 0.28978046], [-0.14901412, 0.28978044, -17.32806216]]" pbc="T T T"
Ti       2.53640049       9.26252804       0.00897409       0.00435947       0.00828460       0.00406331
Ti       5.07871228       4.39202473      22.30063479      -0.00023836       0.00231726       0.00201625
Ti       1.26691286       1.89181282       0.60261977       0.00095607       0.00659073       0.00403839
Ti       3.81368538       6.75853812       0.60208671       0.00064735       0.00863660       0.00875032
Ti       2.70209534       4.08596141       1.38892302      -0.00253007       0.00366926       0.00512656
Ti       0.15404613       8.96128563       1.38642388      -0.00177322       0.00626934       0.00667313
Ti       1.02928007       6.22304485       2.11797436      -0.00354285       0.00499821       0.00366917
Ti       3.57446894       1.35330214       2.11870787      -0.00214099       0.00610357      -0.00176355
Ti       0.22244850       3.50219385       2.76286828      -0.00065309      -0.00579332      -0.00288841
Ti       2.76982379       8.36706180       2.75938389      -0.00442946       0.00258251      -0.00582854
Ti       1.10846499       0.86920097       3.50200321       0.00197974       0.00067979      -0.00790747
Ti       3.65147318       5.74155484       3.50081268       0.00116124       0.00313786      -0.00493792
Ti       2.75609693       3.10977419       4.18766669      -0.00339400      -0.00268822      -0.00701882
Ti       0.21208451       7.97632892       4.18970164      -0.00650507       0.00724166      -0.00568974
Ti       3.61393364       0.43607039       4.85152968      -0.00171280      -0.00277406      -0.00832316
Ti       1.06873120       5.30570401       4.85297702      -0.00680937      -0.00119180      -0.00605064
Ti       2.74934111       7.52282728       5.57627636      -0.00649263       0.00174558      -0.00075085
Ti       0.20661771       2.65528007       5.57670887      -0.00540155      -0.00185291      -0.00236775
Ti       3.61256511       4.87162701       6.29825243      -0.00228965      -0.00047245       0.00834096
Ti       1.06774947       9.73789584       6.30159104       0.00178183      -0.00166447       0.01220443
Ti       0.20826704       7.06862997       6.96381555      -0.00614420      -0.00007845       0.00497354
Ti       2.75261721       2.20171177       6.95339154      -0.00945537      -0.00436935       0.00588304
Ti       1.10937938       4.44313043       7.65600789       0.00262806       0.00138045       0.00662372
Ti       3.65172717       9.30767172       7.65019530      -0.00148095       0.00143201       0.00910019
Ti       0.22613136       1.80508759       8.38178391      -0.00132769      -0.00350368      -0.00372844
Ti       2.77133373       6.67815453       8.39465669       0.00272738      -0.00427778      -0.00646033
Ti       1.02373892       8.81633980       9.04199831      -0.00486623      -0.00991007       0.00069147
Ti       3.57901704       3.94938549       9.02382984       0.00039169      -0.01368151      -0.00513753
Ti       2.69089683       1.20944087       9.75407889      -0.00532391      -0.01494407       0.00573699
Ti       0.13285193       6.07927981       9.78521713      -0.00386656      -0.01732661       0.00343495
Ti       3.80932594       8.28939116      10.55936867       0.00350447      -0.00214373      -0.00993305
Ti       1.27701751       3.41110354      10.54063389       0.00227846      -0.01070419      -0.00816488
Ti       5.06800199       0.92044527      11.13797919       0.00401722      -0.00677435      -0.00203060
Ti       2.55354876       5.78925467      11.12101685      -0.00030611      -0.00688498       0.00166444
Ti       3.82612223       3.44126306      11.78218361       0.00989034      -0.00201280       0.00499863
Ti       1.26071666       8.31090759      11.79568162       0.00721197       0.00705809      -0.00341855
Ti       2.33414695       1.26511960      12.52504740      -0.00049971       0.00819943       0.01029196
Ti       4.88412254       6.14206910      12.56692111       0.00143174       0.00853721       0.00621224
Ti       1.49874435       3.97074203      13.27308508      -0.00124569       0.01687092      -0.00160231
Ti       4.01560208       8.86036959      13.30645812       0.00260375       0.01124662      -0.00250259
Ti       4.89928290       1.80067248      13.94020897       0.00701036       0.00387962       0.00142101
Ti       2.32565004       6.65400007      13.91381776       0.00634147      -0.00518976       0.00118799
Ti       1.48766450       9.29461943      14.67699253      -0.00051537       0.00810730       0.00207764
Ti       4.00842604       4.41249348      14.66805788      -0.00388149      -0.00381277      -0.00785367
Ti       4.90243858       7.08892755      15.35296343      -0.00616328       0.00745277      -0.00859152
Ti       2.39758742       2.19943063      15.32967546       0.00129419      -0.00682797      -0.00345711
Ti       1.48091439       4.86587236      16.01517871       0.00578785      -0.00293746      -0.00619151
Al       4.05238537       9.73750406      16.02077878       0.00256821       0.00219498      -0.00343683
Ti       2.40933866       7.52516140      16.74084205       0.00502530       0.00628953       0.00206284
Ti       4.89601742       2.64307404      16.71641734       0.00086135      -0.00284820       0.00042466
Ti       4.04209735       5.31235351      17.42823368       0.00230751       0.00016007       0.00692287
Ti       1.50734527       0.43299420      17.41507155       0.00199401      -0.00578730      -0.00333871
Ti       4.91085193       7.97582395      18.09564637       0.00311109       0.00570390       0.00196999
Ti       2.32787795       3.12451074      18.12980589      -0.00031060       0.00023033       0.00501704
Ti       1.43923300       5.74113357      18.80242606       0.00043427      -0.00233712      -0.00495557
Ti       3.96162414       0.85801048      18.76962442       0.00245978       0.00284743       0.00268773
Ti       2.30317576       8.35327734      19.55576337      -0.00087337       0.00374369      -0.00188991
Ti       4.85807207       3.49761089      19.53306286       0.00869296      -0.00341362       0.00301716
Ti       1.49133223       1.32820086      20.16126199      -0.00689094       0.00033179       0.00439860
Ti       4.04379995       6.21362207      20.15864951      -0.00110890      -0.00762902       0.00400045
Ti       4.88730659       8.93801198      20.90263866       0.00538395      -0.00099229      -0.00448259
Ti       2.36511771       4.06307490      20.91950484      -0.00062401      -0.00425260      -0.00731932
Ti       3.80762302       1.87687941      21.67743668      -0.00068579      -0.00757031       0.00043294
Ti       1.25969876       6.74891084      21.68412118       0.00264019       0.00872417      -0.00209274
