64
Lattice="5.088765 0.0 0.0 0.0 9.739025 0.0 0.0 0.0 22.303587" Properties=species:S:1:pos:R:3:forces:R:3 job_name=T2-Al-Al-46-d-4.86 GB_type=T2 element=Al system=Al-46-d-4.86 distance=4.86 energy=-492.08186737 stress_kbar_3x3="_JSON [[-1.44538484, 1.42673935, -0.10381299], [1.42673934, -16.06374649, 4.16375266], [-0.10381301, 4.16375266, -16.64244939]]" pbc="T T T"
Ti       2.54971534       9.28782259       0.03690203       0.00949178      -0.00042316       0.00713498
Ti       0.01012092       4.41892953       0.04423062       0.00391160       0.00138365      -0.00223658
Ti       1.28719566       1.95024614       0.58524814      -0.00174320      -0.00393905      -0.00499410
Ti       3.82826221       6.82007912       0.58240769       0.00444348       0.00598898       0.00287301
Ti       2.64919086       4.18206503       1.35588205      -0.00471213       0.01212704      -0.00372506
Ti       0.10407192       9.04672981       1.36162178      -0.00916309       0.01277821      -0.00447403
Ti       0.98848677       6.26792354       2.12960781       0.00284526       0.00474434      -0.00149513
Ti       3.53021752       1.39556720       2.13356295       0.00219638       0.00986909      -0.00567736
Ti       0.22311454       3.51375151       2.75178174       0.00555574       0.00366104       0.00172999
Ti       2.76360379       8.38528845       2.75686458       0.00480915       0.00184898      -0.00525016
Ti       1.08693866       0.86692393       3.51139439       0.00523362      -0.00066142      -0.00276378
Ti       3.63269086       5.73382658       3.50786311       0.00436005      -0.00032250       0.00151171
Ti       2.73608748       3.11551691       4.19036346      -0.00101166      -0.00171911       0.00346113
Ti       0.19097284       7.98446643       4.18940733       0.00150702       0.00011230       0.00674623
Ti       3.58664814       0.42639780       4.84466884       0.00100736      -0.00215209       0.00319386
Ti       1.04312850       5.29541815       4.84357678       0.00041953       0.00068345      -0.00263076
Ti       2.72162613       7.51561216       5.58441468      -0.00088273       0.00531020      -0.00025447
Ti       0.17462378       2.64463187       5.58307025      -0.00164918       0.00367904       0.00160955
Ti       3.59112509       4.85604775       6.31021602      -0.00475172      -0.00844577      -0.00388946
Ti       1.04740182       9.72672814       6.30755200      -0.00158662      -0.00960950       0.00112543
Ti       0.17160570       7.05928424       6.92916596       0.00155209      -0.00012955       0.00019458
Ti       2.71708211       2.18917255       6.93059945      -0.00038115      -0.00225694       0.00611846
Ti       1.08940399       4.45572610       7.64969682       0.00111498      -0.00543328      -0.00005455
Ti       3.63819492       9.33217934       7.65459559       0.00334614      -0.01111781      -0.00177951
Ti       0.26213688       1.77592830       8.38907494       0.00660492       0.00762218      -0.00533320
Ti       2.80507637       6.64407544       8.37610611       0.00911417       0.00380900       0.00012716
Ti       0.98714823       8.71951114       9.01010259      -0.00745719      -0.00918772      -0.00774703
Ti       3.51425781       3.84443086       9.02180445      -0.00203266      -0.00631974      -0.00740758
Ti       2.60005747       1.05314949       9.84496276       0.01146147       0.00005800       0.00669731
Ti       0.06015697       5.91698504       9.82518940       0.00451986      -0.00682334       0.00711533
Ti       3.86005863       8.18557286      10.56250093      -0.00345225      -0.00793988       0.00675512
Ti       1.30081621       3.32183826      10.58777012       0.00159728      -0.01341112       0.00683661
Ti       0.03820589       0.87417552      11.05552081      -0.01526494      -0.00408609       0.01049508
Ti       2.56756539       5.75186999      11.05550804      -0.01338563      -0.00679404       0.00488069
Ti       3.85567510       3.45877300      11.77804740      -0.00228019       0.00997161      -0.00705043
Ti       1.33639835       8.31325660      11.77257883      -0.00086969       0.00603697      -0.01211828
Ti       2.30692023       1.32985100      12.59760247      -0.00586047      -0.00121103       0.01232098
Ti       4.83569170       6.18795254      12.57849580       0.00423784      -0.00070267      -0.00701538
Ti       1.50376783       4.06959815      13.28188269       0.00225679       0.01449674      -0.01001986
Ti       4.07137585       8.91646014      13.25080069       0.00040745       0.00898157      -0.01088522
Ti       4.91981610       1.82381980      13.91996622       0.00205166       0.00433798      -0.00059837
Ti       2.42231867       6.71182406      13.96891586       0.00313514      -0.00058555       0.00661662
Ti       1.48038986       9.29842372      14.66640269       0.00102296       0.00905394      -0.00114875
Ti       4.05762079       4.43449580      14.68758387      -0.01341291       0.01307300      -0.00171710
Ti       4.96037425       7.09192362      15.31694205      -0.00549852      -0.00078880      -0.00512839
Ti       2.36758949       2.23958283      15.33867502      -0.00563021      -0.01092846      -0.00369179
Al       1.52978938       4.88728385      16.01962617      -0.00351459       0.00819354       0.00249509
Ti       4.04547291       0.00644125      16.00848707      -0.00286302      -0.00773102       0.00333965
Ti       2.36150140       7.53333050      16.72726643      -0.00228970       0.00428143       0.00648574
Ti       4.96998527       2.67350294      16.75159529      -0.00519720       0.00442833       0.00825347
Ti       4.07108619       5.31940425      17.41426167      -0.00397698      -0.00798988      -0.00146712
Ti       1.51601751       0.46177686      17.42525922       0.00037556      -0.00123266      -0.00063908
Ti       4.88654532       8.00218153      18.13680625       0.00837205       0.00490335      -0.00086446
Ti       2.38656998       3.11547588      18.09932791       0.00316322      -0.00025387       0.00488850
Ti       1.42943718       5.73544603      18.77367655       0.00627508       0.00562403       0.00447019
Ti       3.99597050       0.87784214      18.79816771       0.00212940       0.00252909       0.00459267
Ti       2.34052065       8.35875582      19.53402790      -0.00550350      -0.00823835      -0.00718247
Ti       4.87285149       3.46958591      19.55438119       0.00751174       0.00062888       0.00124612
Ti       1.51477896       1.31774393      20.16589956      -0.00177687      -0.00010207       0.00225326
Ti       4.04598823       6.17301789      20.16986709      -0.00197802      -0.01020031      -0.00394923
Ti       4.88002874       8.90152183      20.90020045      -0.00477420       0.00490258      -0.00335626
Ti       2.32306342       4.03867482      20.88279390      -0.00626803      -0.00206936      -0.00253443
Ti       3.82650985       1.87999301      21.69567182       0.00480445      -0.01608550       0.00306346
Ti       1.28452770       6.74484823      21.68561587       0.00833300      -0.00622693       0.00044740
