64
Lattice="5.088765 0.0 0.0 0.0 9.739025 0.0 0.0 0.0 22.303587" Properties=species:S:1:pos:R:3:forces:R:3 job_name=T2-Al-Al-41-d-2.77 GB_type=T2 element=Al system=Al-41-d-2.77 distance=2.77 energy=-492.12645936 stress_kbar_3x3="_JSON [[-0.44162516, -0.39102484, 0.96299455], [-0.39102483, -16.45209788, -0.95924748], [0.96299456, -0.95924748, -17.1090219]]" pbc="T T T"
Ti       2.54428620       9.25606776      22.29087707       0.00259914      -0.00179335      -0.00286304
Ti       0.00990680       4.38446333      22.29676885       0.00132970       0.00513027      -0.00006238
Ti       1.27162170       1.87944366       0.61239370       0.00274012       0.00116989      -0.00583112
Ti       3.82233890       6.74972755       0.61882437       0.00527481       0.00300794      -0.00377972
Ti       2.71563360       4.07401304       1.38534816      -0.00273822      -0.00061268      -0.00514087
Ti       0.17514042       8.94332945       1.39458527      -0.00418588      -0.00176507       0.00050802
Ti       1.04409137       6.22067881       2.12250900       0.00582130      -0.00008667       0.00411358
Ti       3.58052582       1.34718810       2.11640650       0.00108498       0.00188034      -0.00256157
Ti       0.22346256       3.49918243       2.76315857       0.00386347      -0.00357316      -0.00067470
Ti       2.76972934       8.37089819       2.76644929      -0.00148653       0.00133540      -0.00219935
Ti       1.10581539       0.87543265       3.50821919       0.00262075       0.00000966      -0.00209760
Ti       3.65392856       5.74484932       3.50133752       0.00122857      -0.00226550      -0.00829919
Ti       2.75639149       3.10794263       4.18218233       0.00291358      -0.00010147      -0.00132479
Ti       0.21690791       7.97497277       4.19613470      -0.00027553       0.00384179       0.00824265
Ti       3.61640091       0.43784632       4.85115635       0.00200702      -0.00046342      -0.00284695
Ti       1.07443019       5.31052033       4.86190613      -0.00265697       0.00218800       0.00694467
Ti       2.75932562       7.52427196       5.58618084       0.00057904       0.00411097       0.00544441
Ti       0.20791339       2.66193815       5.58690281       0.00206633      -0.00019903       0.00366361
Ti       3.60900101       4.87042548       6.28637650       0.00013160      -0.00203712      -0.00571880
Ti       1.06591469       9.73783485       6.29959393      -0.00295404       0.00413410       0.00802111
Ti       0.21445679       7.06425604       6.99245780       0.00253579       0.00475681       0.00637477
Ti       2.75179918       2.20319390       6.95799547       0.00079609      -0.00148220       0.00364968
Ti       1.11147205       4.44149109       7.67748926      -0.00663572       0.00101509       0.00767289
Ti       3.64827352       9.30572723       7.64910552      -0.00114860       0.00044750       0.00625817
Ti       0.21475491       1.80558722       8.39655599       0.00253036      -0.00161348       0.00031411
Ti       2.78959137       6.66189462       8.39545337       0.00386245       0.00156976      -0.00025706
Ti       1.05472795       8.82295906       9.04245806      -0.00323019       0.00549997       0.00014493
Ti       3.61241033       3.97735382       9.01645182      -0.00324415      -0.00194097      -0.00158010
Ti       2.69733033       1.25054937       9.73903712       0.00176343       0.00948316      -0.00452330
Ti       0.19777242       6.13559651       9.87152821       0.00511564       0.00341905      -0.00225687
Ti       3.78402872       8.35917946      10.47898041       0.00169366       0.00455454      -0.00276431
Ti       1.29522163       3.45263592      10.53952279      -0.00926152      -0.00260654      -0.00423716
Ti       5.07832780       0.92899155      11.15188631      -0.00860261      -0.00004323       0.00390498
Ti       2.61170771       5.80991114      11.16841286      -0.00522743      -0.00126158       0.00065362
Ti       3.83034966       3.41901501      11.73283513      -0.00229617      -0.00186492      -0.00503897
Ti       1.24355287       8.28382752      11.82201601      -0.00303826      -0.00440641      -0.00753127
Ti       2.37190153       1.20951559      12.53444286       0.00282814       0.00010743      -0.00530404
Ti       4.89787179       6.07890895      12.64154301       0.00537825      -0.00722185       0.00805187
Ti       1.56219559       3.95446231      13.25413790       0.00759856       0.00084843      -0.00102361
Ti       3.93512847       8.86939330      13.25917396      -0.00867243      -0.00874002       0.00362685
Ti       4.87346267       1.84578131      13.90001385       0.00234538      -0.00072915      -0.00837450
Al       2.30901211       6.63492426      13.93191471      -0.00192536      -0.00145675      -0.00078541
Ti       1.37967298       9.26123697      14.58286800       0.00029569      -0.00719812      -0.00883085
Ti       3.92506097       4.44643827      14.72764965      -0.01110976      -0.00199030       0.00058173
Ti       4.82469737       7.07486551      15.31491377      -0.00455281      -0.00422526      -0.00047765
Ti       2.31833113       2.16992295      15.31058730       0.00141356      -0.00351148      -0.00225003
Ti       1.42534028       4.85578144      15.97519692       0.00317521      -0.00406759      -0.01038184
Ti       4.04036398       0.02439715      15.99710862      -0.00298092       0.00198649      -0.00051770
Ti       2.35411593       7.49646108      16.69370809      -0.00355146      -0.00428448      -0.00417337
Ti       4.88512255       2.64246963      16.73793890       0.00377764      -0.00622382       0.00370228
Ti       4.04177879       5.29531365      17.47414255       0.00077438       0.00072366       0.00794322
Ti       1.48434703       0.42414183      17.43052810       0.00077195       0.00549129       0.00552651
Ti       4.88455452       7.96504947      18.09380759       0.00317069       0.00552995       0.01197464
Ti       2.33793139       3.10432405      18.08022796       0.00303596      -0.00255846       0.00725476
Ti       1.44808960       5.74252277      18.80501183       0.00004636      -0.00756701       0.00278307
Ti       3.98390110       0.86030515      18.80478395      -0.00071825       0.00090384       0.00396633
Ti       2.32419162       8.37175729      19.52668002      -0.00111674       0.00268540      -0.00030973
Ti       4.87386227       3.49032903      19.54311367      -0.00463222      -0.00493577       0.00129898
Ti       1.51129338       1.35146986      20.16508196       0.00266661       0.00352447       0.00043053
Ti       4.05829779       6.22346251      20.19174245       0.00371770       0.00701056      -0.00357353
Ti       4.93731677       8.94303587      20.90900191      -0.00103683       0.00076022      -0.00358462
Ti       2.39643614       4.07560898      20.89475086      -0.00108615       0.00271155       0.00484883
Ti       3.81797003       1.87758131      21.68557962       0.00096123      -0.00234838      -0.00463925
Ti       1.28354640       6.74800304      21.68608667       0.00384961       0.00533772      -0.00208552
