64
Lattice="5.088765 0.0 0.0 0.0 9.739025 0.0 0.0 0.0 22.303587" Properties=species:S:1:pos:R:3:forces:R:3 job_name=T2-Al-Al-33-d-0.00 GB_type=T2 element=Al system=Al-33-d-0.00 distance=0.0 energy=-492.04866647 stress_kbar_3x3="_JSON [[-2.82333408, -0.00788057, 6.06333099], [-0.00788058, -15.87412018, 0.00856531], [6.06333095, 0.0085653, -15.2597178]]" pbc="T T T"
Ti       2.54456877       9.27839180       0.00006470      -0.00003593      -0.00123538       0.00004230
Ti       0.00019807       4.41284209       0.00007176      -0.00028717       0.00176599       0.00013408
Ti       1.26647041       1.90677467       0.59477024      -0.00292042      -0.00327251       0.00057948
Ti       3.80864567       6.77680955       0.59848404      -0.00272180       0.00070490       0.00645760
Ti       2.68437862       4.10627694       1.38993960       0.00030721       0.00144125      -0.00114707
Ti       0.13736023       8.97282744       1.38915919       0.00529688       0.00097358       0.00060353
Ti       0.99068412       6.23421445       2.13377499       0.00865478       0.00609682      -0.00358289
Ti       3.53605171       1.36420181       2.13305893       0.00657739       0.00465480      -0.00054047
Ti       0.18977356       3.50627922       2.75257003      -0.00209718       0.00880092      -0.00151921
Ti       2.73102029       8.37353828       2.75961787       0.00282660       0.00963293       0.00281705
Ti       1.06689183       0.87829554       3.49493513      -0.00114271       0.00679068      -0.00125757
Ti       3.60608726       5.75035827       3.50302626       0.00378369       0.00573702      -0.00504900
Ti       2.69982034       3.12804596       4.19997277       0.00227398       0.00399634      -0.00264481
Ti       0.15542875       7.99321462       4.20140164      -0.00159763       0.00637346       0.00011458
Ti       3.53224872       0.44363159       4.84478528       0.00292452       0.00350284       0.00548623
Ti       0.98452426       5.32008170       4.84390979       0.00131874       0.00580694       0.00214786
Ti       2.68241197       7.51459262       5.58396749       0.00420954       0.00285566      -0.00294595
Ti       0.14001686       2.64497411       5.55318778       0.00300963       0.00158576       0.00326847
Ti       3.55104052       4.87928586       6.32978216      -0.00286339      -0.00179527      -0.00350005
Ti       0.99997570       0.01892340       6.31561085      -0.00294622      -0.00367122      -0.00156961
Ti       0.12340111       7.08895410       6.97903765       0.00197514      -0.00554378       0.00215356
Ti       2.68483717       2.20538015       6.96626713       0.00255034      -0.00062521       0.00219357
Ti       1.04290328       4.47186283       7.56159887       0.00259308      -0.00582666       0.00375142
Ti       3.58771954       9.34227924       7.61636158       0.00038151      -0.00544341       0.00510194
Ti       0.15943979       1.89901490       8.39711836       0.00292611      -0.01239871      -0.00662412
Ti       2.67428664       6.73290585       8.42637560      -0.00064926      -0.00886847       0.00082751
Ti       0.87475840       8.87589548       8.99784660       0.00606994      -0.00462406       0.00287799
Ti       3.39054878       3.98500639       9.01742456       0.00770564      -0.00866525       0.00630911
Ti       2.70110189       1.14502487       9.77745731       0.00543528       0.00450247      -0.00206606
Ti       0.19352831       5.98886042       9.75661762      -0.00140967       0.00165376      -0.00233793
Ti       3.81444698       8.15756583      10.64580522       0.00398354      -0.00826483      -0.00631991
Ti       1.24999175       3.28934594      10.62945716       0.00030796      -0.00480195      -0.00361995
Ti       0.00001449       0.81872069      11.15172233       0.00019317      -0.00383277      -0.00000186
Al       2.54442053       5.69782161      11.15176036       0.00003631       0.00243484      -0.00032159
Ti       3.83886565       3.28933534      11.67387542      -0.00047551      -0.00466325       0.00349282
Ti       1.27442166       8.15753634      11.65752095      -0.00405390      -0.00800634       0.00618539
Ti       2.38779782       1.14492875      12.52583796      -0.00545028       0.00462019       0.00199774
Ti       4.89539216       5.98881259      12.54673870       0.00144930       0.00152228       0.00225447
Ti       1.69832312       3.98492787      13.28596981      -0.00764236      -0.00885224      -0.00614134
Ti       4.21411180       8.87578351      13.30553984      -0.00599614      -0.00471901      -0.00307110
Ti       4.92935767       1.89896795      13.90624363      -0.00303161      -0.01233690       0.00676890
Ti       2.41455322       6.73286562      13.87700087       0.00062023      -0.00883488      -0.00070603
Ti       1.50112064       9.34226664      14.68698885      -0.00014409      -0.00549669      -0.00511865
Ti       4.04599156       4.47181676      14.74177772      -0.00276660      -0.00568207      -0.00387042
Ti       4.96552299       7.08888872      15.32437248      -0.00219697      -0.00554902      -0.00205570
Ti       2.40405658       2.20534444      15.33712064      -0.00256560      -0.00071111      -0.00221402
Ti       1.53780175       4.87917775      15.97357578       0.00299979      -0.00206018       0.00361812
Ti       4.08886267       0.01879627      15.98773580       0.00305953      -0.00377188       0.00149122
Ti       2.40647407       7.51445995      16.71930420      -0.00403370       0.00274045       0.00297037
Ti       4.94885254       2.64485055      16.75012091      -0.00294130       0.00155347      -0.00300769
Ti       4.10437280       5.31994299      17.45946857      -0.00141730       0.00585228      -0.00177461
Ti       1.55665836       0.44347037      17.45856133      -0.00297906       0.00356600      -0.00545067
Ti       4.93339911       7.99307120      18.10198489       0.00164512       0.00615235       0.00010858
Ti       2.38900575       3.12790737      18.10348127      -0.00236040       0.00414484       0.00268000
Ti       1.48282333       5.75031568      18.80032884      -0.00403749       0.00600148       0.00515215
Ti       4.02201112       0.87830676      18.80844402       0.00125452       0.00667650       0.00121639
Ti       2.35803772       8.37326711      19.54369710      -0.00297988       0.00951530      -0.00322308
Ti       4.89932232       3.50603448      19.55078208       0.00201979       0.00869780       0.00179372
Ti       1.55277657       1.36372265      20.17042023      -0.00633075       0.00483432       0.00058038
Ti       4.09815509       6.23385293      20.16973347      -0.00843463       0.00551355       0.00304478
Ti       4.95116898       8.97214142      20.91393621      -0.00521223       0.00076421      -0.00080301
Ti       2.40416787       4.10564606      20.91317921      -0.00027895       0.00137668       0.00111562
Ti       3.82268354       1.90649865      21.70852776       0.00275208      -0.00367179      -0.00065557
Ti       1.28048753       6.77649975      21.70485047       0.00285881       0.00038219      -0.00619697
