64
Lattice="5.088765 0.0 0.0 0.0 9.739025 0.0 0.0 0.0 22.303587" Properties=species:S:1:pos:R:3:forces:R:3 job_name=T2-Al-Al-35-d-0.63 GB_type=T2 element=Al system=Al-35-d-0.63 distance=0.63 energy=-492.0183912 stress_kbar_3x3="_JSON [[-2.22697715, -1.75979552, -3.53231469], [-1.75979546, -16.53974169, -2.27972784], [-3.5323147, -2.27972781, -15.79514687]]" pbc="T T T"
Ti       2.52327706       9.26912854      22.29225818      -0.00453625      -0.00308481      -0.00556878
Ti       5.07388421       4.39976307      22.29394404       0.00581881       0.00341895      -0.00205978
Ti       1.25950405       1.88521239       0.60782837      -0.00430622      -0.01064662       0.00357909
Ti       3.80357223       6.75578367       0.61611617      -0.00152488      -0.00658729       0.00400679
Ti       2.72564139       4.06789069       1.39088158       0.00365391      -0.00621692       0.00272536
Ti       0.18454992       8.93767858       1.40410556       0.00017995      -0.00881074      -0.00182213
Ti       1.03999787       6.20859665       2.11296587       0.00571176       0.00140944      -0.00059971
Ti       3.57997039       1.33141187       2.10882911       0.00951221       0.00297362       0.00640165
Ti       0.23328544       3.48156472       2.76567685       0.00050228       0.00740816       0.00904408
Ti       2.77719398       8.35268491       2.77169684       0.00032138       0.00473279       0.00283932
Ti       1.12651846       0.86260283       3.51173366      -0.00282606       0.01187973       0.00386307
Ti       3.66898109       5.73289161       3.49985546      -0.00147272       0.00939212      -0.00831527
Ti       2.77427051       3.09497745       4.17503807      -0.00123043       0.00544562      -0.00281135
Ti       0.23419118       7.96569470       4.19262881       0.00148227       0.00936787       0.00313949
Ti       3.65365404       0.43517400       4.84666953       0.00127171       0.00798192       0.00645891
Ti       1.10631536       5.31090642       4.85362492      -0.00269561       0.00618653      -0.00982486
Ti       2.79150648       7.53621306       5.57531744      -0.00279440       0.00657242      -0.00198845
Ti       0.24554657       2.67011441       5.58504431      -0.00066833      -0.00652672       0.00036044
Ti       3.63227637       4.86863065       6.26413605      -0.00146520       0.00574917      -0.00673383
Ti       1.09541431       0.00252510       6.29937569      -0.00076694       0.00176096       0.01054455
Ti       0.25514014       7.07222190       6.98689973       0.00027573       0.01500748       0.00458266
Ti       2.80241086       2.20938362       6.94890636      -0.00319386      -0.00026616       0.00531735
Ti       1.13964025       4.43694561       7.69050023      -0.00442451      -0.00162649      -0.00069005
Ti       3.69107358       9.29711707       7.65709876       0.00661417       0.00242927       0.00404133
Ti       0.25052623       1.80931960       8.39327319       0.00211175      -0.01119526      -0.00330479
Ti       2.82614796       6.67015703       8.35616484      -0.00726147       0.01688606       0.00020759
Ti       1.13655836       8.84733868       9.05248788       0.00376497       0.00039383      -0.01021795
Ti       3.66250611       4.01268764       9.00833152       0.00065254       0.00333985       0.00546642
Ti       2.81176703       1.36479085       9.70137506       0.00123246      -0.00049093      -0.00587743
Ti       0.21506869       6.19879496       9.84136362       0.00044625       0.01008293      -0.00265746
Ti       3.73126502       8.41577133      10.48051386       0.00669577      -0.00514172      -0.00812487
Ti       1.25503436       3.49602238      10.51110141      -0.00830343       0.00272757       0.00324595
Ti       5.06160075       0.95854201      11.27007150       0.00317428      -0.00260146      -0.00497815
Ti       2.66297462       5.85313633      11.12034542      -0.00469633      -0.00476196       0.00849182
Ti       3.79453051       3.41184245      11.74551953      -0.01095800      -0.00007915       0.00599327
Al       1.27146329       8.26419761      11.80172376       0.00116471      -0.00735416       0.00352829
Ti       2.45642010       1.12430689      12.45086304       0.00461244       0.00073533       0.00214803
Ti       4.90930537       5.99501056      12.67896357       0.00008815      -0.00963107      -0.00336671
Ti       1.54193327       3.94612968      13.24180163       0.00141127      -0.00793150      -0.00192086
Ti       4.04637894       8.77822455      13.26763888       0.00831792      -0.01312158       0.00238375
Ti       4.80585418       1.80901172      13.92129356      -0.00306178      -0.00010384       0.00279344
Ti       2.31607531       6.63559621      13.89178494       0.00088044      -0.01362074      -0.00765310
Ti       1.37923045       9.30429493      14.58296545       0.00141301      -0.00952674       0.00078888
Ti       3.93025873       4.40318362      14.73228220      -0.00470766      -0.00151084      -0.00883784
Ti       4.80785317       7.04690481      15.37394577       0.00145705      -0.00025770       0.00208715
Ti       2.28284423       2.16338601      15.34268982      -0.00258106       0.00255015      -0.00074806
Ti       1.42151016       4.85718397      15.97416618      -0.00044455      -0.00139642       0.00341740
Ti       3.98270070       9.72257308      15.98225961       0.00053318      -0.00432875       0.00463799
Ti       2.28629388       7.50800796      16.71712400       0.00074807      -0.00071961       0.00957564
Ti       4.85029083       2.62310510      16.75517942      -0.00398248       0.00141809       0.00393977
Ti       3.98217059       5.29276058      17.47123108      -0.00135829       0.00383505      -0.00033444
Ti       1.43990085       0.41981848      17.43337601       0.00126238      -0.00970936       0.00879717
Ti       4.83418283       7.96836469      18.12130990      -0.00091154       0.00112309      -0.00176649
Ti       2.29889860       3.10168407      18.09890538      -0.00298725      -0.00109883       0.00484356
Ti       1.39706436       5.73008719      18.79482277       0.00484523      -0.00002771      -0.00566588
Ti       3.94115720       0.85337452      18.79649870      -0.00411883      -0.00546727      -0.00457955
Ti       2.27866153       8.36675340      19.53372723      -0.00225116      -0.00345658      -0.01059149
Ti       4.82679591       3.48766960      19.54902072       0.00177578      -0.00038483       0.00115212
Ti       1.48575102       1.35285620      20.16715000       0.00004956       0.00445367      -0.00311541
Ti       4.02921406       6.22575284      20.18399815      -0.00098691      -0.00233878       0.00154582
Ti       4.90271421       8.97077029      20.92600627       0.00646728       0.00210115       0.00076221
Ti       2.36008158       4.09369762      20.91393038       0.00400575       0.00643831      -0.00887052
Ti       3.79189896       1.89374814      21.68828768      -0.00295871       0.00123778      -0.00361852
Ti       1.25040258       6.76868863      21.68660832       0.00102042       0.00098367      -0.00606664
