64
Lattice="5.088765 0.0 0.0 0.0 9.739025 0.0 0.0 0.0 22.303587" Properties=species:S:1:pos:R:3:forces:R:3 job_name=T2-Al-Al-49-d-5.58 GB_type=T2 element=Al system=Al-49-d-5.58 distance=5.58 energy=-492.1135162 stress_kbar_3x3="_JSON [[-1.29674463, 0.00953854, 0.00133957], [0.00953854, -15.50345598, 6.5633559], [0.00133956, 6.5633559, -16.08436175]]" pbc="T T T"
Ti       2.60169281       9.31827269       0.10365510       0.00421480      -0.00053246       0.00254381
Ti       0.05314009       4.44360674       0.08809292       0.00329662      -0.00027935       0.00129164
Ti       1.33799011       2.02025855       0.57845618      -0.00058004      -0.00087520      -0.00158677
Ti       3.87196838       6.88312632       0.56732091      -0.00404444      -0.00002761       0.00372170
Ti       2.62205518       4.29123789       1.30141991      -0.00193314      -0.00004770      -0.00487558
Ti       0.08439398       9.15234492       1.29721207      -0.00202879       0.00051171      -0.00082651
Ti       0.98542869       6.33793982       2.14090100      -0.00043326       0.00127807      -0.00503093
Ti       3.54091767       1.46888174       2.14803340       0.00011143      -0.00184299      -0.00604132
Ti       0.28988351       3.53803460       2.76789395       0.00007569       0.00061865      -0.00623749
Ti       2.83461308       8.40182775       2.76353125       0.00208907       0.00242680      -0.00722677
Ti       1.12175733       0.84720369       3.50211805       0.00074931      -0.00109799      -0.00093550
Ti       3.66247064       5.72031801       3.50885306      -0.00006905       0.00077308      -0.00142210
Ti       2.75192867       3.12001396       4.21493855       0.00160034      -0.00077000       0.00200672
Ti       0.20706617       7.99248833       4.21458440       0.00248748       0.00079960       0.00457808
Ti       3.61896937       0.44004868       4.84171838      -0.00069678      -0.00139009      -0.00066049
Ti       1.07696591       5.31220719       4.83926236       0.00131297       0.00106716       0.00229510
Ti       2.74848129       7.52358275       5.57570730      -0.00476470      -0.00011618      -0.00033925
Ti       0.20362343       2.65395603       5.57530368      -0.00264060       0.00033772      -0.00032580
Ti       3.61925603       4.86848793       6.30973494      -0.00067899       0.00178504      -0.00004926
Ti       1.07685996       9.73556987       6.31248377       0.00113464      -0.00105761      -0.00282459
Ti       0.20715012       7.05484883       6.93683257       0.00280076      -0.00137725      -0.00504476
Ti       2.75212048       2.18868457       6.93628679       0.00184110       0.00118132      -0.00289761
Ti       1.12147643       4.46145768       7.64945650       0.00056931       0.00117176       0.00043478
Ti       3.66241738       9.32749458       7.64236718      -0.00003307      -0.00144853       0.00134465
Ti       0.29016793       1.77071666       8.38363818      -0.00027990      -0.00022182       0.00624653
Ti       2.83455680       6.64596182       8.38819685       0.00192738      -0.00291899       0.00765529
Ti       0.98509744       8.70902060       9.01058303      -0.00068796      -0.00178749       0.00496838
Ti       3.54035330       3.83892307       9.00349946       0.00006710       0.00229283       0.00622828
Ti       2.62224905       1.01688919       9.84972970      -0.00178008       0.00016447       0.00592969
Ti       0.08423762       5.89441472       9.85460414      -0.00164128      -0.00036293       0.00125964
Ti       3.87157725       8.16388441      10.58454984      -0.00440993      -0.00027060      -0.00311952
Ti       1.33767648       3.28748539      10.57336994      -0.00085740       0.00178238       0.00235929
Ti       0.05347841       0.86400629      11.06385248       0.00400714       0.00011671      -0.00101253
Ti       2.60150242       5.72884982      11.04793577       0.00462873       0.00045157      -0.00167445
Ti       3.89639296       3.44159853      11.74986503      -0.00157429       0.00375890      -0.00542655
Ti       1.33139462       8.30381325      11.74655756       0.00451919       0.00062635      -0.00045591
Ti       2.31670182       1.33572852      12.61520646      -0.00125597      -0.00071029      -0.00451202
Ti       4.83216055       6.16981880      12.62275928      -0.00093481      -0.00065118      -0.00335092
Ti       1.54575838       4.07863668      13.22919190       0.00085828       0.00222709      -0.00293636
Ti       4.07332278       8.92917220      13.24812800      -0.00099041      -0.00301606      -0.00538027
Ti       4.92968395       1.88556852      13.95446454      -0.00077080      -0.00020241      -0.00281686
Ti       2.36706433       6.74005002      13.94168267      -0.00298922      -0.00158070      -0.00114392
Ti       1.43636469       9.30042094      14.63979380       0.00190184      -0.00037170      -0.00229590
Ti       3.91767359       4.44201643      14.70105069       0.00088122       0.00469516       0.00047239
Ti       4.85263768       7.07428441      15.33804548       0.00258962      -0.00344258      -0.00130536
Ti       2.28370520       2.20857083      15.36162379      -0.00185830       0.00009197      -0.00103953
Ti       1.38527680       4.86600437      15.97978042      -0.00086490       0.00021752      -0.00217144
Ti       4.00659576       0.00462833      16.00939698      -0.00042398      -0.00127201       0.00360430
Ti       2.30584009       7.52280042      16.72760318      -0.00216774      -0.00022534      -0.00000995
Al       4.82304734       2.65276388      16.72774021      -0.00186220      -0.00047988      -0.00088195
Ti       4.00687840       5.30189727      17.44601379      -0.00057772       0.00146564      -0.00376886
Ti       1.38493440       0.44054048      17.47591092      -0.00157673      -0.00003779       0.00134765
Ti       4.85275179       7.97170093      18.11656306       0.00327533       0.00279709       0.00024472
Ti       2.28400290       3.09798964      18.09358069      -0.00157920       0.00022153       0.00063312
Ti       1.43669727       5.74583499      18.81501863       0.00178952      -0.00005456       0.00164470
Ti       3.91799871       0.86460158      18.75405703       0.00166305      -0.00412504      -0.00086044
Ti       2.36703663       8.30557279      19.51392223      -0.00351532       0.00130237       0.00055218
Ti       4.93002928       3.42106876      19.50051799      -0.00088737       0.00032150       0.00255540
Ti       1.54603156       1.22872072      20.22598398       0.00085545      -0.00164557       0.00355722
Ti       4.07401652       6.11652064      20.20700024      -0.00097133       0.00250471       0.00536692
Ti       4.83292916       8.87690478      20.83253981      -0.00084325       0.00079390       0.00436738
Ti       2.31683126       3.97234287      20.83972541      -0.00131054       0.00116405       0.00539856
Ti       3.89665005       1.86638195      21.70542461      -0.00121996      -0.00334068       0.00597349
Ti       1.33164043       6.74266109      21.70878783       0.00448610      -0.00136606       0.00190585
