64
Lattice="5.088765 0.0 0.0 0.0 9.739025 0.0 0.0 0.0 22.303587" Properties=species:S:1:pos:R:3:forces:R:3 job_name=T2-Al-Al-50-d-6.29 GB_type=T2 element=Al system=Al-50-d-6.29 distance=6.29 energy=-492.0519814 stress_kbar_3x3="_JSON [[-1.63558108, -0.55225408, 0.26675236], [-0.55225408, -17.75303416, -0.14120958], [0.26675236, -0.14120958, -17.75131423]]" pbc="T T T"
Ti       2.54676661       9.25674657       0.02306577       0.00730133      -0.00482454       0.00827032
Ti      -0.02841925       4.38613326       0.00346035       0.01302949      -0.00103755       0.00873314
Ti       1.27214190       1.89140746       0.61478113       0.00496507       0.00006084      -0.00407886
Ti       3.80330187       6.74845407       0.60023723       0.00873275       0.00876672      -0.00900211
Ti       2.70056736       4.08270155       1.40278255      -0.00999340       0.01392839      -0.00416340
Ti       0.14330620       8.95212877       1.37295395      -0.00806932       0.01273672      -0.00319972
Ti       1.03119655       6.22286618       2.10451157      -0.00709267       0.00745627       0.00780009
Ti       3.58586525       1.35081381       2.12442865      -0.00828208       0.00807843       0.00115335
Ti       0.22153537       3.50061310       2.77237992       0.00442399       0.00380795      -0.00617998
Ti       2.76926333       8.36709984       2.76150980      -0.00007831       0.00257279      -0.01004824
Ti       1.11179582       0.86615012       3.49355938      -0.00618351       0.00029799       0.00316786
Ti       3.65380315       5.74147213       3.49875386      -0.00419060      -0.00240624       0.00542922
Ti       2.75357988       3.10523298       4.19600796       0.00087831       0.00040566       0.00183719
Ti       0.21056207       7.97653191       4.18562014      -0.00278276      -0.00003115       0.00177061
Ti       3.61470311       0.43601684       4.85256337      -0.00167817       0.00055149       0.00375129
Ti       1.07180734       5.30887172       4.84782571      -0.00736259      -0.00153672       0.00809009
Ti       2.75069049       7.52264883       5.57744664       0.00038893       0.00018030      -0.00287204
Ti       0.20751770       2.65194553       5.57649149       0.00138039       0.00044870      -0.00261981
Ti       3.61684725       4.87089005       6.29933925      -0.00240925      -0.00058317      -0.00148658
Ti       1.06895993       0.00109615       6.29672477       0.00256343       0.00082095       0.00045332
Ti       0.21295153       7.06816494       6.96235601      -0.00020082       0.00439855      -0.00076674
Ti       2.75706532       2.19811600       6.96363291      -0.00224241       0.00196884       0.00062881
Ti       1.11280921       4.43801975       7.65251527      -0.00642044       0.00005892      -0.00425085
Ti       3.65437765       9.30429434       7.65227714      -0.00364909       0.00193341      -0.00209351
Ti       0.22381698       1.80750416       8.38746643      -0.00237694      -0.00324732       0.00100816
Ti       2.77070342       6.67958864       8.39284724      -0.00199635      -0.00182481      -0.00124723
Ti       1.03569046       8.82776692       9.03345994      -0.00821331      -0.00743714       0.00015954
Ti       3.58126725       3.95687875       9.03516979      -0.00978639      -0.00200407      -0.00373751
Ti       2.70719899       1.23277451       9.76037769      -0.00482289      -0.01275141       0.00357840
Ti       0.15881923       6.09399453       9.76445805      -0.00276538      -0.00927052       0.00134432
Ti       3.81310607       8.29391750      10.54511678      -0.00105176      -0.00617861       0.00258764
Ti       1.26479119       3.42019012      10.54644472       0.00402287      -0.00006268       0.00207472
Ti      -0.01135438       0.91881727      11.15722779       0.00306992      -0.00003736      -0.00375930
Ti       2.53702941       5.78611020      11.14298019      -0.00531851      -0.00232372       0.00142800
Ti       3.80535150       3.43581860      11.78007469       0.00206029      -0.00665653      -0.00161370
Ti       1.25843623       8.29604132      11.77133978       0.00240589       0.00320629       0.00143763
Ti       2.36695629       1.24560796      12.53406005      -0.00212416      -0.00221173       0.00300022
Ti       4.88828425       6.10988196      12.55172540       0.00001786      -0.00313968      -0.00056457
Ti       1.48366300       3.97775739      13.29233670       0.01405019      -0.00202999      -0.00091412
Ti       4.03901683       8.83111207      13.29434893       0.00594222      -0.00058389       0.00118274
Ti       4.85703243       1.80712944      13.91913520       0.00029173       0.00417288       0.00267677
Ti       2.30005191       6.68882788      13.89965980       0.00829099       0.00593717      -0.00414439
Ti       1.43697048       9.30335364      14.65172445       0.00607659       0.00455693      -0.00195525
Ti       3.95893172       4.44706103      14.68593530       0.00532171       0.00740065      -0.00404831
Ti       4.90843240       7.07085246      15.36052869      -0.00041310      -0.00212692      -0.00313449
Ti       2.32256188       2.18174155      15.32551197       0.00802483       0.00572578       0.00043243
Ti       1.50617299       4.87711061      16.04100271       0.00030205      -0.00704562      -0.00226815
Ti       4.04069007       9.73719948      16.02441203      -0.00230574      -0.00527696       0.00954151
Ti       2.41213290       7.52117765      16.71437800      -0.01027450       0.00476713       0.00374200
Ti       4.89861781       2.66503674      16.74274731      -0.00770340       0.00050861      -0.00399565
Al       4.05360807       5.30978104      17.43503011      -0.00526676       0.00006753      -0.00243854
Ti       1.47832822       0.44135751      17.44066463       0.00571086      -0.00105108      -0.00207101
Ti       4.90084948       7.95607722      18.10130886       0.00208256       0.00271868      -0.00111151
Ti       2.39826744       3.10974144      18.12165431      -0.00119760      -0.00585199       0.00269477
Ti       1.48798281       5.74994715      18.78017160      -0.00375337       0.00577248       0.00145969
Ti       4.00470114       0.89387573      18.78874835       0.00128065       0.00446792      -0.00477350
Ti       2.32089723       8.39903084      19.54194408       0.00350354      -0.01055373      -0.00233011
Ti       4.89170953       3.50903351      19.51630870       0.00632456       0.00140419       0.00234395
Ti       1.49358635       1.34308045      20.17972547       0.00943890      -0.00158863       0.00535837
Ti       4.01196219       6.19266116      20.15085900       0.00723482      -0.00663903      -0.00215951
Ti       4.88830337       8.91065458      20.89454471      -0.00100213      -0.00092898      -0.00331860
Ti       2.33774739       4.04792684      20.93592429      -0.00020857      -0.00304314      -0.00350101
Ti       3.82252983       1.86752840      21.66917269      -0.00066260      -0.00078196       0.00406281
Ti       1.25773227       6.73829557      21.65830861       0.00276217      -0.00411225       0.00264934
