64
Lattice="5.088765 0.0 0.0 0.0 9.739025 0.0 0.0 0.0 22.303587" Properties=species:S:1:pos:R:3:forces:R:3 job_name=T2-Al-Al-51-d-6.29 GB_type=T2 element=Al system=Al-51-d-6.29 distance=6.29 energy=-492.05221418 stress_kbar_3x3="_JSON [[-1.6889536, -0.5080868, 0.24799502], [-0.50808678, -17.74016607, -0.17274115], [0.24799503, -0.17274117, -17.76291828]]" pbc="T T T"
Ti       2.51961967       9.25322288       0.00273135      -0.00381577      -0.00739192      -0.00176610
Ti       0.00446515       4.38464233       0.02209007      -0.00219035       0.00264825      -0.01134028
Ti       1.26170683       1.87646242       0.60579319      -0.00404605       0.00530203      -0.00737818
Ti       3.81678370       6.75638852       0.61813752       0.00122385      -0.00116643      -0.01202525
Ti       2.68978976       4.07923642       1.37592793       0.00201685       0.00194162      -0.01327826
Ti       0.15872045       8.94657714       1.40336914       0.00166462      -0.00450932      -0.00977940
Ti       1.04421004       6.22062450       2.12496666      -0.00067969       0.00512316      -0.00813491
Ti       3.58140125       1.35234587       2.10731552       0.00028208       0.00054661      -0.00678459
Ti       0.22385136       3.50145433       2.76249947      -0.00005159       0.00401594      -0.00490552
Ti       2.76574063       8.37316007       2.77259007      -0.00115386      -0.00561591      -0.00038126
Ti       1.10962959       0.87386812       3.49730028      -0.00148178      -0.00384618       0.00009917
Ti       3.65469364       5.73935465       3.49385142      -0.00069280       0.00465988       0.00081833
Ti       2.75447268       3.10702639       4.18507052      -0.00057432       0.00341750       0.00341845
Ti       0.21035856       7.97575734       4.19345331       0.00092503      -0.00173791       0.00136586
Ti       3.61559956       0.43908120       4.85147830       0.00035136      -0.00494074       0.00446913
Ti       1.07040500       5.30700564       4.85467672       0.00010512       0.00496443       0.00233668
Ti       2.75197294       7.52271698       5.57671377      -0.00057517      -0.00129505       0.00189576
Ti       0.20602108       2.65260290       5.57685423       0.00011431       0.00086430       0.00468013
Ti       3.61376378       4.87019423       6.29484218       0.00005412       0.00398375       0.00078486
Ti       1.07163942       0.00037582       6.29671714       0.00018899      -0.00310719       0.00375039
Ti       0.21175003       7.06817378       6.96374844      -0.00029842       0.00138895      -0.00126916
Ti       2.75687301       2.19854129       6.96365341       0.00036523      -0.00189831       0.00489812
Ti       1.10882982       4.43231373       7.65328882      -0.00035888       0.00125423       0.00147996
Ti       3.65518155       9.30513295       7.65438581       0.00034950      -0.00014895       0.00332888
Ti       0.22594394       1.80498028       8.39098620       0.00118031      -0.00183894       0.00751100
Ti       2.76694772       6.67238113       8.38603752      -0.00017758       0.00329641      -0.00040948
Ti       1.04169221       8.82535537       9.03365644      -0.00015170       0.00059964       0.00311451
Ti       3.58532725       3.95643164       9.03204086      -0.00173750      -0.00504368       0.00598323
Ti       2.70446312       1.22884671       9.76257955      -0.00221782       0.00164905       0.00866917
Ti       0.16314131       6.10614846       9.75941459       0.00023599       0.00232415       0.00656239
Ti       3.81238582       8.29434473      10.54169658       0.00193970       0.00109123       0.00463332
Ti       1.27088730       3.42792308      10.53921319       0.00159662      -0.00706535       0.00577248
Ti       5.08502636       0.92129935      11.14236131      -0.00080458       0.00424746      -0.00124551
Ti       2.53543327       5.79194046      11.15579379      -0.00100035       0.00005596       0.00112361
Ti       3.80522126       3.43118416      11.77147328      -0.00243249      -0.00506690      -0.00282024
Ti       1.26452864       8.30616689      11.78195214      -0.00257148      -0.00156583      -0.00669591
Ti       2.34758159       1.24320438      12.55201503       0.00328691       0.00430499      -0.01362826
Ti       4.91366129       6.11838240      12.53683702       0.00122503       0.00105397      -0.00443020
Ti       1.49357514       3.95933786      13.29027635       0.00051532      -0.00217937      -0.00925593
Ti       4.02868093       8.84327282      13.28994562       0.00032856      -0.00157274      -0.01078666
Ti       4.84610384       1.81673142      13.89841805      -0.00149101       0.00334764      -0.01249933
Ti       2.31461412       6.67266755      13.92048753       0.00095947      -0.00134866      -0.00628876
Ti       1.41241484       9.31345306      14.68413988      -0.00126989      -0.00134548      -0.00696703
Ti       3.98266390       4.43140498      14.65000024       0.00303148       0.00219436      -0.00108479
Ti       4.86430867       7.04926764      15.32350508      -0.00278663      -0.00652358      -0.00106299
Ti       2.35838457       2.19905908      15.35864820      -0.00378632       0.00614183       0.00008204
Ti       1.49346693       4.86598056      16.02591533      -0.00228110       0.00271495       0.00492655
Ti       4.04725611       0.00443928      16.03988806       0.00365184      -0.00061407      -0.00329625
Ti       2.34835674       7.53435389      16.74373854      -0.00210002      -0.00900501       0.00780591
Ti       4.95053088       2.65342039      16.71685425       0.00474865       0.00519101       0.00405679
Ti       4.02029096       5.31062231      17.44025898       0.00322491       0.00194893       0.00965030
Al       1.50336913       0.44226251      17.43521268       0.00490974      -0.00502930      -0.00016087
Ti       4.93974465       7.97815863      18.12205700       0.00521545      -0.01193502       0.00576139
Ti       2.35318120       3.08821312      18.10225298      -0.00291446       0.00888671       0.00309222
Ti       1.45732637       5.76529957      18.79013405      -0.00261169      -0.00430318       0.00942390
Ti       4.03020701       0.88412754      18.78289603       0.00283220       0.00294124       0.00715952
Ti       2.34492360       8.38023765      19.51597942      -0.00322652      -0.01394447       0.00711541
Ti       4.86188438       3.53201414      19.54251364      -0.00449426       0.01438029       0.00996044
Ti       1.46464651       1.32718474      20.15301304      -0.00136616       0.00706057       0.00669219
Ti       4.03637025       6.21394741      20.17987280       0.00099371      -0.00294224       0.00246485
Ti       4.88450408       8.91594564      20.93581861       0.00423299      -0.01231356       0.00931993
Ti       2.34592180       4.04166547      20.89648693       0.00589173       0.00637935      -0.00001813
Ti       3.80473583       1.86908147      21.65945390       0.00324465       0.00997065      -0.00407616
Ti       1.27715425       6.73463746      21.66877992      -0.00554612      -0.00059576      -0.00243747
