64
Lattice="5.088765 0.0 0.0 0.0 9.739025 0.0 0.0 0.0 22.303587" Properties=species:S:1:pos:R:3:forces:R:3 job_name=T2-Al-Al-52-d-6.97 GB_type=T2 element=Al system=Al-52-d-6.97 distance=6.97 energy=-492.04092914 stress_kbar_3x3="_JSON [[-1.56602098, 0.69554754, -0.64397392], [0.69554757, -17.75312386, -0.55913268], [-0.64397389, -0.55913271, -17.31111455]]" pbc="T T T"
Ti       2.58467856       9.26466963      22.27909434       0.00107978       0.01413707       0.00041649
Ti       5.08642936       4.38032113      22.30184234       0.00463215       0.01108470      -0.00414592
Ti       1.29018561       1.87540872       0.61559708      -0.00093352       0.00451589      -0.00127274
Ti       3.83270301       6.75796321       0.59765848       0.00855258       0.00426531       0.00050979
Ti       2.71204668       4.08220395       1.38677106      -0.00434602      -0.00030552      -0.00374083
Ti       0.18925126       8.94704575       1.36420915      -0.00746162       0.00338624       0.00598593
Ti       1.02837142       6.20500863       2.13099116      -0.00348685       0.00280717       0.00270730
Ti       3.59339244       1.34586447       2.12219631      -0.00808188       0.00322586       0.00212618
Ti       0.22944183       3.48780559       2.76305701      -0.00091933      -0.00347593       0.00213442
Ti       2.78097026       8.36402164       2.74138485      -0.00185164      -0.00254556       0.00873611
Ti       1.11887174       0.86148701       3.50074435      -0.00458053      -0.00035599       0.00319334
Ti       3.65743068       5.73752552       3.50782343       0.00095522      -0.00363339      -0.00432520
Ti       2.75477066       3.10682213       4.18876789       0.00743698      -0.00149255       0.00187410
Ti       0.21443303       7.97900579       4.18157827       0.00351235      -0.00029461       0.00099916
Ti       3.61638916       0.43503931       4.84978984       0.00327143       0.00353158      -0.00188135
Ti       1.06837175       5.30385226       4.85740734       0.00489477       0.00147244      -0.00099413
Ti       2.75369919       7.52497521       5.56854943      -0.00172061      -0.00252725       0.00268743
Ti       0.20845921       2.65144743       5.57532923       0.00250119      -0.00090318      -0.00753874
Ti       3.61370935       4.87346299       6.30103676       0.00086679      -0.00151498      -0.00538130
Ti       1.07083420       0.00159640       6.29989265       0.00699191      -0.00295707      -0.00358043
Ti       0.21551545       7.06872498       6.96286548       0.00372486      -0.00166459      -0.00008693
Ti       2.76227554       2.19957104       6.96211128      -0.00267895      -0.00257382      -0.00124677
Ti       1.11077778       4.43670696       7.64980118       0.00986470       0.00340550       0.00195168
Ti       3.65496183       9.30424222       7.64529741       0.00569273       0.00040770       0.00306160
Ti       0.22783125       1.80578158       8.39165689       0.00108679      -0.00318602       0.00900811
Ti       2.77232333       6.68144696       8.39448190      -0.00251644      -0.00302216      -0.00108922
Ti       1.03770036       8.82606748       9.03522389       0.00055268      -0.00565188       0.00378402
Ti       3.58562886       3.96065740       9.02666525       0.00202970      -0.00660949       0.00974403
Ti       2.72445701       1.22752081       9.75728773       0.00356888      -0.00199668       0.00571122
Ti       0.17112552       6.09335405       9.77006438      -0.00051340      -0.00385102       0.00244546
Ti       3.82972445       8.29226347      10.54542637       0.00431079      -0.00211308      -0.00463074
Ti       1.28390734       3.42362562      10.53579066       0.00356814      -0.00580255      -0.00159430
Ti       0.01249139       0.91786898      11.17024572      -0.00420041      -0.00308733      -0.00906577
Ti       2.55691925       5.79103983      11.16431494      -0.00030582      -0.00588853      -0.00156284
Ti       3.83168806       3.42889457      11.76451870      -0.01145637       0.00206836      -0.00096472
Ti       1.29059376       8.29405587      11.77201425      -0.00871672       0.00186470      -0.00633639
Ti       2.39885146       1.23755025      12.53757364       0.00068999       0.01259395       0.00036207
Ti       4.93178380       6.11365421      12.55951600      -0.00485977       0.00428601      -0.00834649
Ti       1.51318369       3.96036590      13.26934810       0.00159081      -0.00017549      -0.00839305
Ti       4.05395256       8.82888208      13.28534012       0.00530524      -0.00014046      -0.00196349
Ti       4.86567493       1.81756354      13.93192561      -0.00406967      -0.00520001       0.00405168
Ti       2.33519095       6.67769418      13.94199812       0.00093070      -0.01040867       0.00248410
Ti       1.44550965       9.31401123      14.60832864      -0.00030411       0.00180534      -0.00189951
Ti       3.98292581       4.43095619      14.64953642      -0.00743042      -0.00430792      -0.00011997
Ti       4.89906988       7.07288534      15.37681375      -0.00212530       0.00469588      -0.00083141
Ti       2.32719753       2.18256318      15.35568692      -0.00076526      -0.00675396       0.00043785
Ti       1.49501322       4.85241645      16.00074986       0.00683245      -0.00269946      -0.00310494
Ti       4.02696652       0.00412341      16.01998944       0.00746512      -0.00062222       0.00051542
Ti       2.28880698       7.56417421      16.73733286       0.00214278       0.00275618      -0.00243279
Ti       4.85304210       2.66942390      16.74408793       0.00155174      -0.00401422      -0.00124666
Ti       3.96939324       5.34037148      17.47899322      -0.00667207       0.00122000       0.00269921
Ti       1.37422785       0.45771489      17.48266541      -0.00140758      -0.00419808      -0.00249080
Al       4.82501359       7.97733062      18.11911905      -0.00107848      -0.00102566      -0.00346244
Ti       2.33219262       3.11488018      18.11687886       0.00361747      -0.00664603       0.00047746
Ti       1.36366872       5.73349196      18.75054686      -0.00125591      -0.00377884      -0.00672872
Ti       3.91429753       0.84056193      18.75306418       0.00174685      -0.00301685       0.00261619
Ti       2.27781064       8.33167888      19.51380802       0.00025494      -0.00598456       0.00033325
Ti       4.84485241       3.47494097      19.52647631       0.00051016       0.00340663       0.00504433
Ti       1.53756701       1.36094331      20.19156363       0.01363162       0.00423843       0.00250161
Ti       4.08529654       6.21533272      20.18481814       0.00985356       0.00639675       0.00521482
Ti       4.94591813       8.93884580      20.86887067      -0.00415982       0.00734049       0.00544292
Ti       2.36923904       4.10557884      20.90155066      -0.01113108       0.01289875       0.00042495
Ti       3.83499856       1.88698656      21.68956736      -0.01280779       0.00574923       0.00054259
Ti       1.28033176       6.74936392      21.73359708      -0.01338048       0.00086544       0.00023375
