64
Lattice="5.088765 0.0 0.0 0.0 9.739025 0.0 0.0 0.0 22.303587" Properties=species:S:1:pos:R:3:forces:R:3 job_name=T2-Cu-Cu-38-d-2.12 GB_type=T2 element=Cu system=Cu-38-d-2.12 distance=2.12 energy=-491.214138 stress_kbar_3x3="_JSON [[-6.06839825, -3.52666249, -0.9932321], [-3.52666247, -20.79796891, -0.48598946], [-0.99323209, -0.48598946, -23.01735143]]" pbc="T T T"
Ti       2.58668506       9.29074625       0.08951656       0.00667892       0.00581585       0.00769721
Ti       0.04466076       4.41891188       0.08516774       0.00164160       0.01175354       0.00498985
Ti       1.31516100       1.98392188       0.59972519      -0.00399780       0.01389109      -0.00362126
Ti       3.85878709       6.85034248       0.60159186       0.00367002       0.01326337      -0.00563652
Ti       2.61484399       4.26671822       1.30536120       0.00105311       0.00649292      -0.00645359
Ti       0.06931926       9.13560630       1.30254180       0.00197445       0.01187227      -0.00645553
Ti       1.03082952       6.37518007       2.13709959      -0.00714717       0.00224804       0.00078809
Ti       3.57308977       1.51000037       2.13994094       0.00343078      -0.00245202       0.00007960
Ti       0.26734023       3.62599387       2.78322723       0.00263560      -0.00882731      -0.00417595
Ti       2.81091201       8.49057387       2.77991514      -0.00195060      -0.00133861      -0.00413469
Ti       1.10201982       0.94037952       3.48847931      -0.00011520      -0.00675190      -0.00129798
Ti       3.64612041       5.80484061       3.49643676      -0.00007123       0.00020502      -0.00316566
Ti       2.72632434       3.21327418       4.22139993       0.00015540      -0.00112240      -0.00073445
Ti       0.18852407       8.08195994       4.20903624      -0.00520370       0.00498233       0.00054310
Ti       3.60861186       0.55607123       4.87257162      -0.00294773      -0.00246249      -0.00110103
Ti       1.06105695       5.42358117       4.88638143      -0.00004492      -0.00228058       0.00414688
Ti       2.76170475       7.63225283       5.56023994       0.00215263      -0.00118156       0.00119694
Ti       0.20849559       2.76253834       5.56323501      -0.00121583       0.00351681       0.00755673
Ti       3.60358731       4.96838478       6.32732840       0.00130407       0.00379493       0.00925146
Ti       1.06570110       0.10877247       6.30596366       0.00438656       0.00225469       0.00250376
Ti       0.22020439       7.18311564       6.99487768       0.00005005      -0.00624889      -0.00510491
Ti       2.76176597       2.31469231       6.99927669      -0.00200198       0.00229474       0.00185047
Ti       1.06931117       4.51180208       7.69514235       0.00318106      -0.00363894       0.00105745
Ti       3.63461224       9.39634410       7.66755479       0.00141932       0.00679841       0.00357807
Ti       0.17659258       1.90370787       8.38708454      -0.00191132       0.00881187      -0.00348401
Ti       2.73963562       6.77574266       8.36798865      -0.00209282      -0.00314422       0.00119249
Ti       1.06727890       8.97740407       9.08056336       0.00121447       0.00064212       0.00627318
Ti       3.55524139       4.09736947       9.14016663       0.00395301      -0.00430314      -0.00500456
Ti       2.75441726       1.40633300       9.76045545       0.00217774       0.00363805      -0.00683417
Ti       0.23290735       6.25550162       9.74289329      -0.00111692       0.00336644      -0.00010008
Ti       3.76050741       8.41355378      10.50310724      -0.00170461       0.00177547       0.00447507
Ti       1.08369437       3.55504909      10.57110704      -0.00018732       0.00426629      -0.00955306
Ti       0.00706971       0.93617479      11.24525559      -0.00153525      -0.00066452       0.00057487
Ti       2.56506247       5.83369531      11.19202154      -0.00087571       0.00308512      -0.00372721
Ti       3.66343545       3.35863466      11.90374870       0.00125842      -0.00286780      -0.00380141
Ti       1.28522497       8.19874637      11.82132999      -0.00000694      -0.00245348       0.00219560
Ti       2.55463360       1.01149347      12.50701923       0.00561851      -0.00720993      -0.00255026
Ti       5.05242299       5.90936762      12.50161365      -0.00577151       0.00096716      -0.00537999
Cu       1.43225043       3.80859021      13.23055288      -0.00234226      -0.00723483       0.00139610
Ti       4.01960732       8.64763421      13.27818659       0.00080907      -0.00971787      -0.00238978
Ti       4.94698610       1.69575652      13.95256997      -0.00593339      -0.00966672       0.00075955
Ti       2.29210886       6.41678917      13.93591901      -0.00123557       0.00186289      -0.00251721
Ti       1.47516809       9.23483236      14.59739561      -0.00201930      -0.00417797       0.00158775
Ti       4.07012161       4.34527730      14.62207509       0.00696872      -0.00358389       0.00144977
Ti       4.89593983       6.96648932      15.33330835       0.00227163       0.00114304       0.00359465
Ti       2.40242025       2.11955900      15.23724066       0.00348655      -0.00193247       0.00839154
Ti       1.41611055       4.72362970      16.00140489      -0.00378959      -0.00429901      -0.00250995
Ti       4.01480772       9.62000325      16.00019184       0.00693135      -0.00577688      -0.00620946
Ti       2.31540381       7.39754020      16.68177877       0.00084600       0.00330504      -0.00130137
Ti       4.83992561       2.52605926      16.69432460       0.00545461      -0.00845716       0.00083145
Ti       3.99664479       5.19503565      17.40312922      -0.00070393      -0.00142069       0.00410762
Ti       1.48065721       0.34570930      17.38192295      -0.00394450      -0.00163221      -0.00333066
Ti       4.87290565       7.85363485      18.12714664       0.00445526       0.00237046      -0.00194650
Ti       2.32294568       2.99290998      18.11889259      -0.00534404      -0.00283726       0.00312990
Ti       1.44615170       5.64915806      18.78253748      -0.00530644      -0.00251046       0.00511301
Ti       4.00295517       0.78067830      18.78248304      -0.00610927       0.00847478      -0.00116194
Ti       2.36186325       8.25500612      19.46771243      -0.00282374      -0.00464776       0.00345614
Ti       4.90945162       3.38001085      19.49659853       0.00713963      -0.00072131       0.00069861
Ti       1.52136540       1.18054292      20.20329894       0.00402166      -0.00777534      -0.00105334
Ti       4.05343752       6.05215788      20.20640209       0.00317753      -0.00577419       0.00101932
Ti       4.82338092       8.80326699      20.84485186      -0.00705839      -0.00088235       0.00527249
Ti       2.28933992       3.92697302      20.84407616      -0.00244636       0.00156033      -0.00371513
Ti       3.88568446       1.82879318      21.67706176      -0.00120699      -0.00014151       0.00305769
Ti       1.34014608       6.70584400      21.66663196      -0.00335543       0.00568460       0.00463523
