64
Lattice="5.088765 0.0 0.0 0.0 9.739025 0.0 0.0 0.0 22.303587" Properties=species:S:1:pos:R:3:forces:R:3 job_name=T2-Cu-Cu-43-d-3.50 GB_type=T2 element=Cu system=Cu-43-d-3.50 distance=3.5 energy=-491.11554735 stress_kbar_3x3="_JSON [[-3.29788509, -5.50257149, -0.06178336], [-5.50257147, -20.8968679, -1.00711857], [-0.06178339, -1.00711859, -20.20144494]]" pbc="T T T"
Ti       2.59221821       9.32555842       0.10233986      -0.00113272      -0.00180779       0.00284681
Ti       0.03270500       4.45143789       0.11493205      -0.00442887       0.00029508       0.00147218
Ti       1.31439657       2.01726887       0.57347782      -0.00297458      -0.00047987       0.00119502
Ti       3.85686999       6.89172350       0.55567375      -0.00480669       0.00045643       0.00314441
Ti       2.59810416       4.30225508       1.29597690       0.00451778      -0.00317773      -0.00252169
Ti       0.06261757       9.16426772       1.28816874      -0.00031770      -0.00120699      -0.00133906
Ti       0.99018448       6.39287085       2.14884311       0.00128662       0.00232040       0.00302772
Ti       3.54683735       1.52352161       2.14398666       0.00041516       0.00029655       0.00340749
Ti       0.27413403       3.60778758       2.78382252       0.00098811      -0.00158657      -0.00619712
Ti       2.82173775       8.47989538       2.77130532       0.00166854      -0.00029095       0.00114166
Ti       1.10544733       0.92420656       3.49264844       0.00422159       0.00068786      -0.00562861
Ti       3.64787382       5.79840774       3.49684417       0.00010362       0.00024649      -0.00242338
Ti       2.71194195       3.21645581       4.22710055       0.00214813      -0.00077501      -0.00044469
Ti       0.16951988       8.08706885       4.23064887       0.00303615      -0.00242952      -0.00292116
Ti       3.59611994       0.56107965       4.86063469       0.00271692      -0.00345424      -0.00452861
Ti       1.05133618       5.42914112       4.86905642      -0.00051912      -0.00351909      -0.00592542
Ti       2.73728807       7.64105539       5.54730704      -0.00297766      -0.00102981       0.00463939
Ti       0.19229724       2.77107088       5.55543788      -0.00545201       0.00154190       0.00531450
Ti       3.58888988       4.98618203       6.32390659       0.00004235       0.00303646      -0.00070394
Ti       1.05072811       0.12152901       6.32431144       0.00086478       0.00358946      -0.00009917
Ti       0.21003040       7.18334790       6.99574456      -0.00382862       0.00318210      -0.00039866
Ti       2.75427018       2.31494051       6.99012841      -0.00263307       0.00229306       0.00227781
Ti       1.07925151       4.52132368       7.67344973       0.00313130       0.00331850       0.00404529
Ti       3.63166038       9.39866885       7.65330825      -0.00136451       0.00169183       0.00387110
Ti       0.15589612       1.93970138       8.39741084      -0.00251159      -0.00426514       0.00537109
Ti       2.70162416       6.80614973       8.38259698       0.00244775       0.00314749       0.00221704
Ti       1.00397310       8.99907282       9.08845839      -0.00250205      -0.00448973      -0.00197138
Ti       3.53213357       4.11257939       9.08828140      -0.00156077       0.00132884      -0.00078368
Ti       2.75458271       1.38883534       9.71730258       0.00092138      -0.00031844      -0.00155559
Ti       0.20354932       6.24448539       9.72829692       0.00132814      -0.00157858      -0.00226762
Ti       3.74449040       8.36940171      10.54809473      -0.00013169       0.00180641      -0.00042461
Ti       1.14341918       3.51979971      10.62596359      -0.00237222      -0.00047900       0.00664133
Ti       5.03558302       0.91103423      11.27015627      -0.00020069      -0.00140925       0.00480404
Ti       2.49516023       5.78997136      11.20714798       0.00263862      -0.00041204       0.00137829
Ti       3.72523971       3.34231229      11.79461395      -0.00022169       0.00002528      -0.00118244
Ti       1.21888966       8.19211450      11.76709712       0.00357076      -0.00181759       0.00352636
Ti       2.48643843       1.03673463      12.46437932      -0.00216392       0.00025473      -0.00195297
Ti       5.01581299       5.86618981      12.52105712      -0.00445637       0.00195102       0.00389672
Ti       1.56520617       3.79197320      13.36972249       0.00123520       0.00113034      -0.00164439
Ti       4.06324795       8.61986636      13.31456169       0.00183932       0.00248572      -0.00065309
Ti       4.80288312       1.70688283      13.93420207      -0.00225557       0.00170280       0.00535634
Ti       2.38439519       6.54801772      13.92342160       0.00369397      -0.00255246      -0.00045038
Ti       1.42697923       9.24698884      14.61484751      -0.00352149       0.00259548      -0.00183850
Cu       4.07231475       4.30171399      14.63682163      -0.00190910      -0.00412919      -0.00361515
Ti       4.96099117       6.87009356      15.29041080      -0.00063504       0.00149419      -0.00080775
Ti       2.42644945       2.08368034      15.41432119      -0.00111156       0.00205946      -0.00641061
Ti       1.61226268       4.73394804      15.98406369       0.00121013       0.00342870      -0.00596386
Ti       4.06340308       9.61613518      15.98021363      -0.00243067      -0.00421538       0.00121614
Ti       2.33207837       7.43047821      16.66343787       0.00379790      -0.00305374      -0.00059029
Ti       4.93394514       2.55710123      16.63806143       0.00417221      -0.00272730       0.00265009
Ti       3.98852791       5.17663298      17.40740747      -0.00119588      -0.00599030      -0.00069117
Ti       1.47511189       0.30672257      17.45735429      -0.00677710      -0.00036250      -0.00638894
Ti       4.87574935       7.83973541      18.11887722       0.00109155       0.00389212      -0.00495380
Ti       2.32863736       2.95505724      18.15100280       0.00425321      -0.00160341       0.00216721
Ti       1.45275714       5.60985761      18.69963866       0.00520924      -0.00311145      -0.00463814
Ti       4.00269415       0.76279638      18.72979953       0.00432724       0.00094027       0.00008742
Ti       2.37969792       8.18565517      19.50859716       0.00121443       0.00794212       0.00059205
Ti       4.91838952       3.35145252      19.49407955       0.00264406       0.00263342      -0.00110070
Ti       1.56115715       1.16083460      20.21280322      -0.00150243       0.00026644       0.00555662
Ti       4.11476560       6.03284899      20.18894377       0.00147526      -0.00110043      -0.00187072
Ti       4.82010199       8.82924617      20.82984697      -0.00258099       0.00175149      -0.00616833
Ti       2.25631864       3.98400648      20.84669935      -0.00365577       0.00128421       0.00046566
Ti       3.87102061       1.87298621      21.68225284       0.00173843      -0.00135613       0.00103752
Ti       1.32199915       6.72650073      21.69276046       0.00018227      -0.00034706       0.00770833
