64
Lattice="5.088765 0.0 0.0 0.0 9.739025 0.0 0.0 0.0 22.303587" Properties=species:S:1:pos:R:3:forces:R:3 job_name=T2-Cu-Cu-48-d-5.58 GB_type=T2 element=Cu system=Cu-48-d-5.58 distance=5.58 energy=-491.05863911 stress_kbar_3x3="_JSON [[-4.00477416, 0.01396439, 0.00679995], [0.0139644, -20.24206014, 6.14271986], [0.00679997, 6.14271985, -20.07185627]]" pbc="T T T"
Ti       2.60756910       9.30295845       0.06584894       0.00275320       0.00209176      -0.01539963
Ti       0.05432222       4.44126092       0.09722191      -0.00170260       0.00644625      -0.01045652
Ti       1.33168476       2.00342606       0.55582930      -0.00064714       0.00756705      -0.01003868
Ti       3.88182495       6.88250062       0.56726058       0.00599559       0.00767252      -0.00704545
Ti       2.62881982       4.27177988       1.28976218       0.00574578       0.00999436      -0.00204707
Ti       0.08713083       9.14878663       1.27920570       0.00456026       0.00612737      -0.00351062
Ti       0.99607131       6.33483621       2.13884279      -0.00645469      -0.00256421       0.00113120
Ti       3.53513654       1.46322795       2.13087056      -0.00805897      -0.00264595      -0.00242896
Ti       0.29622780       3.52369359       2.76344002      -0.00364702       0.00159218      -0.00400087
Ti       2.84269814       8.40504844       2.75928833      -0.00841144       0.00079389      -0.00959647
Ti       1.11906285       0.84224454       3.49858085       0.00388862       0.00383130       0.00280293
Ti       3.66670844       5.71329780       3.50135702      -0.00339343      -0.00204388      -0.00179895
Ti       2.75664677       3.11548328       4.21187520      -0.01289119       0.00875329       0.00194822
Ti       0.21101373       7.98633251       4.21357248      -0.00233589      -0.00294303      -0.00209300
Ti       3.62238381       0.44190088       4.83924547      -0.01280242       0.00069924       0.00466404
Ti       1.07822836       5.30838517       4.84217840      -0.01188614      -0.00207639       0.00158673
Ti       2.75255237       7.52344920       5.57658170      -0.00701252       0.00020532       0.00330220
Ti       0.21374451       2.65376719       5.57658554      -0.01834437      -0.00029661       0.00354947
Ti       3.62240518       4.86617951       6.31398595      -0.01011138      -0.00097997       0.00088167
Ti       1.07834942       9.73884156       6.31106474      -0.01000063       0.00205683       0.00431125
Ti       0.21043743       7.06135153       6.93867007      -0.00363012       0.00273699       0.00706771
Ti       2.75621736       2.19272400       6.94051070      -0.01442257      -0.00835437       0.00303276
Ti       1.11912918       4.46644937       7.65359639       0.00481936      -0.00198357      -0.00073033
Ti       3.66696444       9.33461681       7.65091650      -0.00229137       0.00388644       0.00352813
Ti       0.29675085       1.78486109       8.38806385      -0.00535648      -0.00119789       0.00248002
Ti       2.84307186       6.64260358       8.39209974      -0.01007790       0.00000788       0.00867685
Ti       0.99535290       8.71199535       9.01193058      -0.00409803       0.00202358      -0.00257995
Ti       3.53418602       3.84426239       9.02023865      -0.00613045       0.00206070       0.00214742
Ti       2.62834711       1.03540275       9.86087632       0.00466885      -0.01220553      -0.00158531
Ti       0.08666703       5.89764295       9.87134981       0.00378419      -0.00837393      -0.00062559
Ti       3.88178610       8.16368215      10.58264128       0.00484926      -0.00719520       0.00407655
Ti       1.33134641       3.30347332      10.59458094      -0.00097175      -0.00648339       0.00674487
Ti       0.05409709       0.86591545      11.05214104      -0.00148840      -0.00625731       0.00463163
Ti       2.60729087       5.74328561      11.08364995       0.00419538      -0.00229743       0.00910070
Ti       3.87398198       3.44079643      11.75321063       0.00855194      -0.00803727      -0.00607777
Ti       1.34739741       8.32074083      11.75823541      -0.00252056      -0.01230807      -0.00132557
Ti       2.28505947       1.30343503      12.63866092       0.01174861      -0.00002824      -0.00114779
Ti       4.86831777       6.22030148      12.65872379       0.00187715      -0.00552649      -0.00246271
Ti       1.53803440       4.06221836      13.26100108       0.00007015      -0.00355059      -0.00084714
Ti       4.08423127       8.94584615      13.24800756       0.00701790      -0.00305968      -0.00649352
Ti       4.91206159       1.88375074      13.93936991      -0.00039156      -0.00903594      -0.00059065
Ti       2.39572532       6.75810236      13.96204605       0.00986066      -0.00209983       0.00927381
Ti       1.36617163       9.29417126      14.71988144       0.00645411      -0.01286006       0.00683238
Ti       3.97094317       4.44045892      14.66525423       0.00685204      -0.00206766      -0.00779542
Ti       4.78317996       7.09102907      15.38759013      -0.00349970      -0.00635057       0.01148456
Ti       2.30412694       2.18054384      15.35853617       0.00305810      -0.01369078       0.01088494
Ti       1.45335137       4.90403764      16.01106495       0.00578089       0.00703154       0.00870595
Ti       3.92882811       0.00394348      15.97809086       0.00164168      -0.00500618       0.00958789
Cu       2.26287979       7.52305802      16.72786696       0.00526933      -0.00078821      -0.00521718
Ti       4.87427905       2.65344955      16.72851245      -0.00206680      -0.00070500       0.00303574
Ti       3.92869074       5.30352737      17.47898787       0.00108882       0.00627991      -0.00318966
Ti       1.45334555       0.40350380      17.44594254       0.00655271      -0.00872297      -0.00345415
Ti       4.78304560       7.95580281      18.06910704      -0.00260810       0.00586611      -0.00867626
Ti       2.30401141       3.12655869      18.09796217       0.00602775       0.01369511      -0.00577693
Ti       1.36581242       5.75246790      18.73613550       0.00431532       0.01407143      -0.00479702
Ti       3.97088616       0.86703588      18.79092656       0.00462527       0.00289737       0.01010148
Ti       2.39607324       8.28851942      19.49285325       0.01170631       0.00114104      -0.01092027
Ti       4.91225689       3.42333785      19.51593168       0.00118253       0.00801670       0.00089615
Ti       1.53815686       1.24519244      20.19392680      -0.00091913       0.00354760      -0.00293429
Ti       4.08443146       6.10101694      20.20638764       0.00490155       0.00171270       0.00575220
Ti       4.86866338       8.82588765      20.79505540       0.00413789       0.00661159      -0.00089374
Ti       2.28542471       4.00382302      20.81535579       0.01473520       0.00064030      -0.00405364
Ti       3.87422204       1.86655855      21.70066581       0.00845010       0.00813394       0.00119871
Ti       1.34775705       6.72587752      21.69490580      -0.00299377       0.01354391      -0.00282709
