64
Lattice="5.088765 0.0 0.0 0.0 9.739025 0.0 0.0 0.0 22.303587" Properties=species:S:1:pos:R:3:forces:R:3 job_name=T2-Cu-Cu-49-d-5.58 GB_type=T2 element=Cu system=Cu-49-d-5.58 distance=5.58 energy=-491.06043879 stress_kbar_3x3="_JSON [[-4.6687152, 0.0095119, -0.00042406], [0.00951191, -20.75290881, 5.9796022], [-0.00042407, 5.97960221, -20.65619147]]" pbc="T T T"
Ti       2.59921640       9.31546290       0.09443254       0.00235056      -0.00593283       0.00346839
Ti       0.06528638       4.43888388       0.06148286      -0.00402169      -0.00073625       0.00440336
Ti       1.33828313       2.01805487       0.56396565       0.00002738       0.00539777       0.00613326
Ti       3.87836155       6.87813473       0.55273783      -0.00350241       0.00608485       0.00666858
Ti       2.63349262       4.28280018       1.27939714       0.00010734       0.00946124       0.00751774
Ti       0.08587108       9.14571931       1.29146156      -0.00550688       0.00054101       0.00268939
Ti       0.98440027       6.33059557       2.13216020      -0.00029307       0.00359677       0.00857134
Ti       3.53418354       1.46331436       2.14098558      -0.00306115       0.00471026       0.00597109
Ti       0.29483416       3.53276643       2.75368015      -0.00198638       0.00836868       0.01271256
Ti       2.83557428       8.39123061       2.75916259      -0.00044085      -0.00290323       0.00491674
Ti       1.11837397       0.84408819       3.50312163       0.00050870       0.00055954      -0.00322789
Ti       3.66192375       5.71131331       3.50124842      -0.00835807      -0.00255630      -0.00687101
Ti       2.75251439       3.11627733       4.21282479      -0.00988939       0.00689077      -0.00600786
Ti       0.20515627       7.98695661       4.21230558      -0.00397723      -0.00056655      -0.00880645
Ti       3.61463197       0.43806744       4.83942590      -0.00270446       0.00446210       0.00520523
Ti       1.07125999       5.30909467       4.83627799      -0.00420869       0.00072801      -0.00789136
Ti       2.74834571       7.52319239       5.57573961      -0.00633904       0.00043314      -0.00178864
Ti       0.20264878       2.65386607       5.57574027      -0.00474643      -0.00119087      -0.00136468
Ti       3.61471702       4.87012134       6.31225131      -0.00231927      -0.00615918      -0.00851191
Ti       1.07160626       9.73774805       6.31543387      -0.00425213      -0.00078478       0.00452612
Ti       0.20486822       7.06016464       6.93913362      -0.00334238       0.00103163       0.00504199
Ti       2.75205852       2.19216590       6.93835239      -0.00931624      -0.00853867       0.00283699
Ti       1.11825354       4.46429214       7.64849623      -0.00036380      -0.00117676       0.00126491
Ti       3.66172970       9.33597762       7.65019381      -0.00854204       0.00301916       0.00413967
Ti       0.29466989       1.77539917       8.39756840      -0.00026318      -0.00884732      -0.01174563
Ti       2.83567442       6.65630694       8.39237271      -0.00082881       0.00267338      -0.00547943
Ti       0.98342149       8.71594230       9.01988809      -0.00021283      -0.00273786      -0.00794921
Ti       3.53359723       3.84434341       9.01068618      -0.00277903      -0.00518005      -0.00452898
Ti       2.63304180       1.02441440       9.87222732       0.00033559      -0.00842516      -0.00475527
Ti       0.08541871       5.90059557       9.86065490      -0.00518356      -0.00047401      -0.00047971
Ti       3.87787093       8.16796794      10.59978689      -0.00318843      -0.00288256      -0.00385936
Ti       1.33816754       3.28897049      10.58786867      -0.00036038      -0.00538912      -0.00217187
Ti       0.06494645       0.86860963      11.09002576      -0.00283722       0.00055089      -0.00031611
Ti       2.59875433       5.73079831      11.05694911       0.00270077       0.00512398       0.00068052
Ti       3.89090140       3.44513575      11.75766603       0.00833818      -0.00824904       0.01207418
Ti       1.33230927       8.30450574      11.75180369       0.00060786      -0.00003975       0.00499228
Ti       2.32677184       1.34598801      12.66003976       0.00791986      -0.00776903       0.01201361
Ti       4.83464403       6.16850931      12.63919127       0.00212315      -0.00821101       0.00791025
Ti       1.54321694       4.07144456      13.25085953       0.00308809      -0.00721537       0.00701526
Ti       4.08457169       8.92673147      13.26319042       0.00852465       0.00191985       0.00916479
Ti       4.94322277       1.88597344      13.96415646       0.00821295      -0.00531767       0.00206620
Ti       2.37014581       6.74892303      13.93907866       0.00336905      -0.00145963       0.00391135
Ti       1.42990743       9.30695643      14.66378878       0.00321084      -0.00082533      -0.00343089
Ti       3.91335142       4.42108799      14.72226220       0.00534098      -0.01021242      -0.00322995
Ti       4.85349040       7.04590485      15.35902730       0.00051923       0.00273965       0.00170379
Ti       2.24140953       2.21746866      15.38923970       0.00105122      -0.00265554      -0.00416511
Ti       1.38867582       4.87126432      15.97813520       0.00145430      -0.00577479      -0.00035678
Ti       4.00452842       0.03560548      16.01053267      -0.00603770      -0.00636304      -0.00821750
Ti       2.33385904       7.52282440      16.72727011       0.00587508       0.00049462      -0.00102812
Cu       4.81058998       2.65348399      16.72741477      -0.00289252      -0.00011465       0.00032322
Ti       4.00476968       5.27207046      17.44427899      -0.00691570       0.00668282       0.00639064
Ti       1.38880131       0.43578041      17.47674058       0.00123787       0.00664647      -0.00297302
Ti       4.85348968       8.00034058      18.09589651      -0.00085131      -0.00058922      -0.00377545
Ti       2.24130008       3.08995136      18.06539790       0.00077317       0.00260211       0.00223958
Ti       1.43005223       5.73980096      18.79120434       0.00463994       0.00071487       0.00202535
Ti       3.91379654       0.88689140      18.73249537       0.00587663       0.00777292       0.00228237
Ti       2.37062625       8.29757101      19.51620422       0.00303787       0.00298430      -0.00455138
Ti       4.94315294       3.42210719      19.49085389       0.00777263       0.00350046      -0.00229047
Ti       1.54343390       1.23643799      20.20422305       0.00258041       0.00661277      -0.00720437
Ti       4.08485569       6.12023225      20.19239797       0.00877549      -0.00179800      -0.00845871
Ti       4.83561840       8.87821289      20.81596078       0.00086129       0.00782944      -0.00429742
Ti       2.32691958       3.96160980      20.79526874       0.00823670       0.00799574      -0.01028513
Ti       3.89111123       1.86246411      21.69758583       0.00836488       0.00764262      -0.00866011
Ti       1.33289469       6.74174518      21.70385560       0.00169965       0.00130414      -0.00218097
