64
Lattice="5.088765 0.0 0.0 0.0 9.739025 0.0 0.0 0.0 22.303587" Properties=species:S:1:pos:R:3:forces:R:3 job_name=T2-Cu-Cu-34-d-0.63 GB_type=T2 element=Cu system=Cu-34-d-0.63 distance=0.63 energy=-491.20123109 stress_kbar_3x3="_JSON [[-6.46665446, 1.81521534, -1.83942764], [1.81521536, -19.755766, -5.47025652], [-1.83942759, -5.4702565, -20.90732203]]" pbc="T T T"
Ti       2.51323882       9.31029616      22.20380107      -0.00019707       0.00806487       0.00278159
Ti       5.05511043       4.44095172      22.19605019       0.00155657       0.00566336      -0.00131561
Ti       1.22473638       1.87214624       0.60139189       0.00103259       0.00976298      -0.00352080
Ti       3.76885265       6.73481187       0.59412567       0.00580632       0.00862368       0.00008113
Ti       2.79208360       4.01080557       1.44987452       0.00049498       0.00689389       0.00213371
Ti       0.23780631       8.87663527       1.43739851       0.00100862       0.00736159       0.00234897
Ti       1.01578944       6.12792220       2.09785213      -0.00962173       0.00158074       0.00248156
Ti       3.56355312       1.27030524       2.10203346      -0.00207486      -0.00318417       0.00510562
Ti       0.18322247       3.46026482       2.79148618      -0.00180892      -0.00675714       0.00034136
Ti       2.72321952       8.32255962       2.77673199       0.00149156      -0.00507039      -0.00236544
Ti       1.10727076       0.87738826       3.52190971      -0.00299260      -0.00531580       0.00019345
Ti       3.65492820       5.73954086       3.54057542       0.00285100      -0.00721806       0.00806577
Ti       2.76176262       3.10113848       4.19258532       0.00397885      -0.00833590      -0.00449888
Ti       0.21929943       7.96966833       4.16619257      -0.00126005      -0.00550391      -0.00284423
Ti       3.63050368       0.45706916       4.87149067       0.00517158      -0.00765573      -0.00876217
Ti       1.09073947       5.31820982       4.87892199      -0.00122882      -0.00791211      -0.00089826
Ti       2.77989976       7.55496859       5.60503160       0.00154215      -0.00712274       0.00477362
Ti       0.23399146       2.68585951       5.60300388      -0.00057223      -0.00841534      -0.00278131
Ti       3.59825139       4.86651336       6.33389822      -0.00104792      -0.00365845       0.00265555
Ti       1.05792560       0.01287309       6.27969560      -0.00226603      -0.01262809      -0.00120006
Ti       0.22188419       7.08716448       6.95984064      -0.00151549      -0.00833647      -0.00032118
Ti       2.75846109       2.22366738       7.02187451      -0.00104346      -0.00677029       0.00076023
Ti       1.08740545       4.43420085       7.73036307       0.00160170      -0.00299363       0.00454230
Ti       3.65258875       9.33031563       7.71675295       0.00087461      -0.01054430      -0.00053255
Ti       0.21298548       1.81922681       8.38260420       0.00102269      -0.00862129       0.00210153
Ti       2.76099545       6.68906811       8.37865888       0.00457431      -0.00680976      -0.00501308
Ti       1.08898846       8.91618530       9.02288560       0.00163670      -0.00898738      -0.00547253
Ti       3.62918445       4.03391521       9.14340202      -0.00118798      -0.00746522      -0.00162236
Ti       2.72136414       1.34961432       9.82915209      -0.00406252      -0.00347730       0.00057042
Ti       0.26255123       6.26809922       9.70452136      -0.00706216      -0.00073277      -0.00006250
Ti       3.74235471       8.36273696      10.51682676       0.00289108      -0.00166322      -0.00171960
Ti       0.99324020       3.54725717      10.54358523      -0.00199681      -0.00582797       0.00098890
Ti       0.05192993       0.92273073      11.13578011      -0.00549200       0.00326383      -0.00606063
Ti       2.52892157       5.76116477      11.28034735       0.00737079       0.00415350       0.00421717
Cu       3.75586403       3.30453377      11.78602947      -0.00609226      -0.00475161      -0.00058840
Ti       1.22523392       8.21293957      11.74915808       0.00548374       0.00119615       0.00014779
Ti       2.38193506       1.07306739      12.60797755       0.00169057       0.00691572      -0.00062970
Ti       5.04743589       5.84860190      12.41012420      -0.00887869       0.00205645       0.00987960
Ti       1.61262734       3.83101307      13.25726334      -0.00019724       0.00969586       0.00519560
Ti       4.08985558       8.78798513      13.24854386      -0.00326108       0.00802047      -0.00101292
Ti       4.85704500       1.77323431      13.84484325       0.00111484       0.01008673      -0.00211797
Ti       2.29275627       6.62665985      13.90451971       0.00241398       0.00218162      -0.00417434
Ti       1.41150055       9.25439957      14.69858107       0.00096095       0.00510882      -0.00151044
Ti       3.97105387       4.40426398      14.57917766       0.00360475       0.00506502      -0.00649301
Ti       4.85818357       7.00549802      15.31151875      -0.00107421       0.00866329       0.00060126
Ti       2.30757539       2.13902141      15.33349115      -0.00267065       0.00137246      -0.00870874
Ti       1.49549659       4.84124913      15.95493933      -0.00435662       0.00679249      -0.00185235
Ti       4.01497970       9.71676979      15.95872561       0.00269817       0.00212940      -0.00194838
Ti       2.33952460       7.49158236      16.74135475       0.00118539       0.00803474       0.00181346
Ti       4.87960099       2.63833746      16.70119883       0.00076690       0.00481200       0.00713032
Ti       4.02380680       5.29195655      17.42924636      -0.00061552       0.00323823       0.00851228
Ti       1.47022697       0.42698065      17.46319021      -0.00135100      -0.00021780       0.00335679
Ti       4.89877725       7.96152197      18.04928868      -0.00020289       0.00059441      -0.00348949
Ti       2.34676458       3.09454472      18.06265609       0.00414944      -0.00049930       0.00532327
Ti       1.43153346       5.68308648      18.78020104      -0.00124290       0.00404518      -0.00101449
Ti       3.97608343       0.82274938      18.77022565       0.00087782       0.00338553      -0.00258177
Ti       2.25705967       8.37246808      19.52549594      -0.00706138       0.00106917      -0.00882561
Ti       4.79736673       3.50097245      19.51393545      -0.00559945      -0.00222175       0.00176449
Ti       1.57859545       1.46307358      20.15794699       0.00296039       0.00103107      -0.00165430
Ti       4.11576100       6.32150423      20.14070857       0.00531509      -0.00342106       0.00397219
Ti       5.01415642       9.13743331      20.97490490       0.00255759       0.00510865      -0.00215342
Ti       2.47144195       4.26778886      20.98865480       0.00113051       0.00457725      -0.00348348
Ti       3.77268409       2.00557425      21.72952065       0.00642536       0.01207667       0.00159133
Ti       1.22437091       6.87657340      21.72716659      -0.00020709      -0.00050689       0.00779877
