64
Lattice="5.088765 0.0 0.0 0.0 9.739025 0.0 0.0 0.0 22.303587" Properties=species:S:1:pos:R:3:forces:R:3 job_name=T2-Cu-Cu-45-d-4.19 GB_type=T2 element=Cu system=Cu-45-d-4.19 distance=4.19 energy=-491.09454857 stress_kbar_3x3="_JSON [[-2.1132023, -8.68055282, -0.24599321], [-8.68055281, -19.85635389, 1.27487953], [-0.24599316, 1.27487956, -20.12706743]]" pbc="T T T"
Ti       2.57427171       9.34208895       0.09721384       0.00208311       0.00708583       0.00052066
Ti       0.03982249       4.47002707       0.08820356       0.00696633      -0.00114505      -0.00196908
Ti       1.30801967       2.03808377       0.56098980       0.00523087       0.00361574      -0.00386730
Ti       3.85561198       6.90614118       0.57043128       0.00266211       0.00583585       0.00808405
Ti       2.60693475       4.30735975       1.27284230      -0.00222577      -0.00112274      -0.00481904
Ti       0.05367091       9.18353379       1.30127219      -0.00157218       0.00062360      -0.00292660
Ti       0.99897570       6.39970608       2.13609977      -0.00162592       0.00379157      -0.00237711
Ti       3.53246896       1.53703135       2.13252898      -0.00006832       0.00079667      -0.00381813
Ti       0.27996052       3.60589080       2.76879106      -0.00027875      -0.00020997       0.00083340
Ti       2.81679521       8.47886021       2.78005911       0.00040978      -0.00310652       0.00173278
Ti       1.10114836       0.92307871       3.47908180       0.00239226       0.00073258       0.00102121
Ti       3.64863854       5.78477578       3.46979124       0.00444103       0.00463409       0.00376819
Ti       2.71575321       3.20543348       4.22418291       0.00043035       0.00079616       0.00731320
Ti       0.16948596       8.07462541       4.22876762      -0.00146034      -0.00525894       0.00619285
Ti       3.59279917       0.55404170       4.84613591      -0.00044719      -0.00082606       0.00948245
Ti       1.04733163       5.42053724       4.84404154      -0.00295478       0.00273366       0.00627197
Ti       2.75533383       7.60520310       5.54278286       0.00457975       0.00460078       0.00026084
Ti       0.21145456       2.73794066       5.54160145       0.00072202       0.00490034       0.00550892
Ti       3.61730725       4.95864052       6.31276541       0.00073346      -0.00207584       0.00004844
Ti       1.07572799       0.08771691       6.31369238      -0.00467101      -0.00177234       0.00031655
Ti       0.22333234       7.15358642       7.02464293       0.00029448      -0.00218762      -0.00977891
Ti       2.76308505       2.28314689       7.02259657       0.00740764       0.00009464      -0.00305992
Ti       1.12218150       4.51395980       7.60506926      -0.00292428      -0.00638940      -0.00494352
Ti       3.66684800       9.37960125       7.60486283       0.00139304       0.00454978      -0.00816659
Ti       0.17148400       1.93149361       8.37939319      -0.00232816       0.00329266       0.00148464
Ti       2.70860029       6.80696291       8.38461887       0.00296603      -0.00171676      -0.00626418
Ti       0.98511960       8.99777353       9.07210294       0.00433708       0.01011701       0.00316852
Ti       3.52710065       4.12875737       9.06172746       0.00271430      -0.00538960      -0.00161209
Ti       2.90113350       1.24927781       9.73248811      -0.00209004       0.00466827       0.00372757
Ti       0.33306448       6.13074843       9.72581905      -0.00403742      -0.00277644       0.00114803
Ti       3.82235205       8.25429897      10.57696665      -0.00231330       0.00905010       0.00781432
Ti       1.27688728       3.37793771      10.58555226      -0.00031965      -0.00884158      -0.00517533
Ti       0.04850487       0.77468501      11.39898748      -0.00862998      -0.00118599      -0.00141665
Ti       2.56340197       5.65454274      11.35777239       0.00364453      -0.00311011       0.00206852
Ti       3.82782581       3.20303530      11.65508619      -0.00257761      -0.01198007      -0.00273316
Ti       1.27772793       8.05327752      11.68770261       0.00052145       0.00821865       0.00097807
Ti       2.57258190       0.90236577      12.49727650       0.01055023       0.00051480      -0.00666406
Ti       0.02737107       5.72292998      12.46048147      -0.00703503      -0.00182162      -0.00663206
Ti       1.72860910       3.63389106      13.31243387      -0.00307665      -0.00424637       0.00195950
Ti       4.20983173       8.49596405      13.29691400      -0.00313543       0.00761381      -0.00626309
Ti       4.69513908       1.87283803      13.97148092      -0.01026749      -0.00622096       0.00531629
Ti       2.14873290       6.64298548      13.99641790       0.00996740       0.00480480       0.00029290
Ti       1.31913113       9.39483058      14.70788032      -0.00040412       0.00628331      -0.00066175
Ti       3.91320704       4.53932372      14.72394630       0.00063434      -0.01234628       0.00293083
Ti       4.95115524       7.06333854      15.48285898      -0.00710701       0.00185096       0.00663649
Cu       2.28541141       2.12513030      15.38556494       0.00024828      -0.00133464      -0.00127425
Ti       1.36020420       4.70654177      15.91559713       0.00048299      -0.00700275       0.00444972
Ti       3.88629328       9.65008448      15.90181973       0.00268678       0.00571008       0.00422446
Ti       2.34581695       7.44886987      16.66767756       0.00424307      -0.00011517       0.00243600
Ti       4.74190863       2.53227194      16.66146110      -0.00909311      -0.00292038      -0.00172818
Ti       4.04562036       5.26665802      17.45527350      -0.00165222      -0.00175488       0.00030695
Ti       1.48500632       0.37379301      17.41188081       0.00389513       0.00077429       0.00116834
Ti       4.84883432       7.96221702      18.13952663      -0.00824415       0.00397499      -0.00350478
Ti       2.33628165       3.05887086      18.07395476       0.00244778      -0.00033710      -0.00146396
Ti       1.42928201       5.71784207      18.77627590       0.00559901      -0.00986831      -0.00891563
Ti       3.96049857       0.82701920      18.80505195       0.00065934      -0.00346729      -0.00599875
Ti       2.35763863       8.28520505      19.51123994       0.00802877       0.00022514      -0.01067746
Ti       4.91244243       3.41084501      19.44256038       0.00111519      -0.00559784       0.00222813
Ti       1.51424505       1.22961903      20.17889325      -0.00328711       0.00294277       0.00255995
Ti       4.07811210       6.07304185      20.21247679      -0.00556515      -0.00443724      -0.00414603
Ti       4.81991986       8.85642916      20.85901779      -0.00254517       0.00788071       0.00199563
Ti       2.27121060       3.98048223      20.80425585      -0.00296454      -0.00435296       0.00240542
Ti       3.86956491       1.89560933      21.68127833      -0.00191486       0.00135413       0.00018625
Ti       1.33259509       6.74786060      21.68389945       0.00232883       0.00085111       0.01001559
