64
Lattice="5.088765 0.0 0.0 0.0 9.739025 0.0 0.0 0.0 22.303587" Properties=species:S:1:pos:R:3:forces:R:3 job_name=T2-Cu-Cu-39-d-2.12 GB_type=T2 element=Cu system=Cu-39-d-2.12 distance=2.12 energy=-491.17591707 stress_kbar_3x3="_JSON [[-3.41079426, -1.20851913, -0.71923535], [-1.20851906, -18.77612338, -2.72224638], [-0.71923539, -2.72224636, -20.82521737]]" pbc="T T T"
Ti       2.54793547       9.26150882      22.29863948       0.00310282       0.00003049       0.00241287
Ti       0.00462535       4.39437678      22.29998230       0.00319154       0.00033065       0.00028893
Ti       1.27481785       1.89046400       0.61270706       0.00258941       0.00181101      -0.00055555
Ti       3.81847020       6.76305280       0.61232168       0.00150826       0.00275622      -0.00242425
Ti       2.71320334       4.09411625       1.37466285      -0.00517937       0.00628202      -0.00134345
Ti       0.16595983       8.96355889       1.38358369      -0.00341579       0.00796683      -0.00196391
Ti       1.04407382       6.23745096       2.12118600       0.00134191       0.00573917       0.00463956
Ti       3.58668756       1.36411358       2.12047136       0.00227150       0.00790755       0.00408371
Ti       0.23146257       3.51975228       2.76142650      -0.00009520       0.00654440       0.00427770
Ti       2.77348009       8.39061922       2.76821139       0.00088106       0.00873685       0.00092119
Ti       1.10805235       0.88774745       3.51380826      -0.00036066       0.00469159       0.00186794
Ti       3.65418144       5.76232946       3.50173486       0.00013736       0.00476395       0.00744572
Ti       2.76255365       3.13144571       4.18009306      -0.00092186       0.00451081       0.00574973
Ti       0.21185117       7.99952779       4.19691843       0.00040191       0.00504470       0.00414491
Ti       3.61654751       0.46273196       4.88146045      -0.00141896       0.00745220       0.00273801
Ti       1.07575707       5.33665372       4.86822243      -0.00186414       0.00464042       0.00257039
Ti       2.76138683       7.55275498       5.58363428      -0.00022605       0.00353388      -0.00225383
Ti       0.22761162       2.68720559       5.57615767       0.00198323       0.00733343      -0.00238901
Ti       3.61645560       4.89452826       6.30345935      -0.00204445       0.00567630      -0.00263121
Ti       1.06132641       0.01642213       6.32887460      -0.00004182       0.00385881      -0.00076799
Ti       0.21464656       7.10905318       6.99400079       0.00088988       0.00519264      -0.00407018
Ti       2.76373863       2.23720303       6.97550856      -0.00068545       0.00665196      -0.00195792
Ti       1.10868438       4.46642160       7.68055996       0.00051831       0.00672651      -0.00756916
Ti       3.62423164       9.31366130       7.70311406      -0.00109577       0.00594258      -0.00636772
Ti       0.20909819       1.84694397       8.36976489       0.00003617       0.00150740      -0.00142841
Ti       2.73738596       6.71135880       8.39974434      -0.00586695       0.00249431      -0.00930153
Ti       1.01565205       8.89530384       9.13760612      -0.00000702       0.01012480      -0.00543667
Ti       3.62744721       4.03805447       9.06708760      -0.00120483       0.00269029      -0.00512719
Ti       2.76063359       1.33464471       9.73401551      -0.00068390       0.00283745      -0.00428878
Ti       0.19170297       6.22302510       9.78073642       0.00335303       0.00263934      -0.00312677
Ti       3.63661707       8.39288036      10.58288085       0.00463871       0.00686826       0.00762426
Ti       1.25808476       3.49767192      10.52469680      -0.00528950      -0.00107102      -0.00570374
Ti       0.01212142       0.94734861      11.17357363       0.00232020      -0.00689584      -0.00107763
Ti       2.55625655       5.80170623      11.23842756       0.00067847       0.00075330      -0.00006939
Ti       3.83500423       3.34873016      11.80385531      -0.00259234       0.00230891      -0.00349519
Ti       1.12233196       8.25197277      11.90771236      -0.00574003      -0.00397114       0.00606321
Ti       2.46897988       1.11467106      12.49279655       0.00147517      -0.01828233       0.00066907
Ti       5.07774244       5.92887862      12.53896556       0.00069607       0.01236754      -0.00763034
Ti       1.49927981       3.85568828      13.28492429      -0.00062526      -0.00675846       0.00056530
Cu       3.98224390       8.75866986      13.23598372      -0.00060558      -0.00845579       0.00717643
Ti       4.82817916       1.62112947      13.91496378       0.00505699      -0.01129629       0.00720942
Ti       2.40594315       6.64501688      13.94518069       0.00350893       0.00564773      -0.00376231
Ti       1.52169585       9.28858466      14.62117259       0.00287182      -0.01144332      -0.00440137
Ti       4.01242380       4.43247325      14.61078096      -0.00295689      -0.00538747       0.00590993
Ti       4.93754807       7.07084353      15.24353093       0.00042916       0.00571814      -0.00014508
Ti       2.33897128       2.17650406      15.33096394      -0.00028627      -0.00693059       0.01002709
Ti       1.46858775       4.84491850      15.99212237       0.00251910      -0.00819002       0.01031614
Ti       3.95855970       9.68576969      15.99313919      -0.00248544      -0.01072366      -0.00453495
Ti       2.30775400       7.48454844      16.71055015      -0.00315338      -0.00447421       0.00209917
Ti       4.86644062       2.61654370      16.69422931      -0.00054583      -0.00507997       0.00804363
Ti       4.02772293       5.29805801      17.38148912       0.00015235      -0.00618780       0.00660384
Ti       1.45247837       0.41050715      17.40017901       0.00252605      -0.00291279       0.00033323
Ti       4.86398734       7.96391578      18.10271258      -0.00124034      -0.00829145       0.00051857
Ti       2.32462949       3.08787884      18.10868340      -0.00110863      -0.00249257      -0.00197951
Ti       1.44761960       5.73928476      18.78981025       0.00069361      -0.00445574      -0.00104373
Ti       3.97740791       0.86686574      18.78853054       0.00255801      -0.00147497       0.00059125
Ti       2.31787029       8.37106456      19.52502082       0.00211056      -0.00791131      -0.00128371
Ti       4.86294376       3.50241341      19.49622123       0.00060832      -0.00421258      -0.00090951
Ti       1.48279563       1.33258355      20.16705212      -0.00060159      -0.00498210       0.00045079
Ti       4.03677040       6.20559647      20.16399556       0.00024825      -0.00824241       0.00036141
Ti       4.90613398       8.92452120      20.89479917      -0.00313036      -0.00732462      -0.00344292
Ti       2.35437974       4.05521114      20.89009008      -0.00336464      -0.00614199      -0.00639941
Ti       3.82112710       1.87851208      21.66253037       0.00288937      -0.00290789      -0.00279830
Ti       1.27527943       6.74366639      21.66997510       0.00065078      -0.00358411      -0.00402280
