64
Lattice="5.088765 0.0 0.0 0.0 9.739025 0.0 0.0 0.0 22.303587" Properties=species:S:1:pos:R:3:forces:R:3 job_name=T2-Cu-Cu-53-d-6.97 GB_type=T2 element=Cu system=Cu-53-d-6.97 distance=6.97 energy=-491.09612968 stress_kbar_3x3="_JSON [[-2.18019303, 8.27318408, 0.17575074], [8.2731841, -19.45087547, 1.30652792], [0.17575076, 1.30652792, -19.85311684]]" pbc="T T T"
Ti       2.55385052       9.37389607      22.11021747       0.00017248       0.00792833       0.00088376
Ti       0.03847128       4.51308625      22.06932029       0.00055715       0.00174490      -0.00361012
Ti       1.26707704       1.91489889       0.56955437       0.00012187      -0.00140372      -0.00214125
Ti       3.81319599       6.77052945       0.57620430      -0.00161898       0.00345242       0.00670144
Ti       2.88149778       4.03968182       1.42188186       0.00012808       0.00326838       0.01293044
Ti       0.31278543       8.90028222       1.42919027       0.00327818      -0.00274614       0.01486973
Ti       0.99756537       6.06008665       2.07733735      -0.00977762      -0.00192011       0.01193512
Ti       3.53715068       1.19251437       2.08876750      -0.00538516      -0.00656866       0.00890602
Ti       0.17366073       3.38847650       2.76688173      -0.00064245       0.00103339       0.00793398
Ti       2.71338357       8.25478533       2.76666295      -0.00373578      -0.00557714       0.00249465
Ti       1.12126962       0.80862435       3.53992301      -0.00577399      -0.00505143       0.00211572
Ti       3.66696525       5.67858247       3.53985747      -0.00202148       0.00363972       0.00294827
Ti       2.77268212       3.03257699       4.13529366      -0.00102477      -0.00312818       0.00035302
Ti       0.23077216       7.90213206       4.13756652      -0.00125269      -0.00772745      -0.00720134
Ti       3.61829388       0.35456458       4.83867758       0.00093010      -0.00793457      -0.00843295
Ti       1.07636914       5.22513457       4.83878982       0.00089221      -0.00446513      -0.00690357
Ti       2.75820644       7.44697019       5.61030830      -0.00301161      -0.00506506      -0.00616620
Ti       0.21328394       2.57417972       5.60946181      -0.00424129       0.00146801      -0.00220524
Ti       3.60015312       4.76520675       6.29996503       0.00322881      -0.00398736       0.00331604
Ti       1.05277489       9.63632772       6.30255288       0.00464260      -0.00317376       0.00241838
Ti       0.17224047       6.98585949       6.92182543       0.00177360      -0.00929611      -0.01152067
Ti       2.71837557       2.11286548       6.92316328       0.00599584       0.00458158      -0.00834214
Ti       1.10490573       4.39846608       7.67019541       0.00272271      -0.00461503      -0.00957379
Ti       3.65168893       9.27490329       7.67747951       0.00421682      -0.00931789      -0.00161245
Ti       0.28808314       1.70987185       8.38296333       0.00361158      -0.00129839      -0.00133911
Ti       2.82592608       6.57784204       8.37124510       0.00277040      -0.00362195       0.00065318
Ti       0.99946999       8.65078133       9.01327938       0.00620634      -0.00495214       0.01294816
Ti       3.53471377       3.77554965       9.01781594       0.00013424      -0.00579861       0.00148355
Ti       2.60633630       0.99877464       9.88510551       0.00655097      -0.00181422      -0.00786582
Ti       0.05447678       5.86100009       9.85908507       0.00572330       0.00067897      -0.01527385
Ti       3.86442000       8.14108805      10.57656120      -0.00942644       0.00313254       0.01003330
Ti       1.31874079       3.27179684      10.58863512      -0.00749241      -0.00446293       0.00395512
Ti       0.04626394       0.84535172      11.06236206       0.00354100      -0.01090545      -0.00395717
Ti       2.58009390       5.70941060      11.05348947      -0.00012790      -0.00335013      -0.00935146
Ti       3.87873736       3.42367433      11.77050676       0.00012427      -0.01701615       0.00534406
Ti       1.34312275       8.30891902      11.76772242      -0.00406389      -0.00802577       0.00078228
Ti       2.27379613       1.34065128      12.65314209      -0.00312440      -0.01624663      -0.00125349
Ti       4.82253773       6.20165843      12.60257469      -0.00333470      -0.01351023      -0.00645260
Ti       1.51384310       4.08219466      13.26942588       0.01173156      -0.00623699       0.00800775
Ti       4.07582258       8.98117021      13.24128722       0.00380643      -0.00229858       0.00268797
Ti       4.91588304       1.89804091      14.01451569      -0.00298098       0.01156227       0.00036439
Ti       2.36285641       6.76038609      13.95024967      -0.00464183       0.00966384       0.00676627
Ti       1.42975530       9.33003163      14.67825554       0.00703616       0.00751004       0.00310998
Ti       3.96464423       4.47816132      14.64860002      -0.00644739       0.00881326       0.00976779
Ti       4.84712358       7.08371357      15.32361734       0.00347154       0.01345945       0.00289647
Ti       2.33836251       2.24749701      15.38279242       0.01497262       0.01107692       0.00565755
Ti       1.48501320       4.92591481      16.04124777       0.00333199       0.00341102       0.00038895
Ti       4.04188912       0.03622940      16.00112344      -0.00282297       0.01101129       0.01039102
Ti       2.34019195       7.58846220      16.78593661       0.00052658       0.00684507       0.00358205
Ti       4.74181728       2.77013701      16.79486393      -0.00611150       0.00634408       0.00378641
Ti       3.88781275       5.38523318      17.54589014       0.00576795       0.00646541      -0.00618614
Ti       1.36124556       0.59236632      17.52979237      -0.00462633       0.01223781       0.00060979
Ti       4.93859921       7.98059396      17.98349154      -0.00394869       0.00195472      -0.00133743
Cu       2.28246642       3.17567355      18.07397866      -0.00420573       0.00099175       0.00282400
Ti       1.32350281       5.64524877      18.74792118      -0.00188306       0.00995393      -0.00813231
Ti       3.91259868       0.77892372      18.72758223       0.00644163       0.01639345      -0.00468766
Ti       2.15748097       8.40424512      19.46151291       0.00075641       0.00543028      -0.00868462
Ti       4.69515237       3.44132549      19.48091430      -0.00703299      -0.00202122      -0.01097692
Ti       1.71216838       1.65096848      20.13930885      -0.00059186       0.00775534      -0.00379894
Ti       4.19399876       6.51518694      20.16119210      -0.00358270       0.00423062      -0.00578769
Ti       0.01089452       9.30669246      20.99305697       0.00900203      -0.00153679       0.00182241
Ti       2.56354903       4.38461706      20.95909047       0.00414317      -0.00085895      -0.00329214
Ti       3.81872550       2.09355119      21.79233955      -0.00933398      -0.00452715      -0.00943242
Ti       1.26807175       6.97309351      21.75768110      -0.00404507       0.00442123      -0.00014954
