64
Lattice="5.088765 0.0 0.0 0.0 9.739025 0.0 0.0 0.0 22.303587" Properties=species:S:1:pos:R:3:forces:R:3 job_name=T2-Cu-Cu-37-d-1.39 GB_type=T2 element=Cu system=Cu-37-d-1.39 distance=1.39 energy=-491.19567217 stress_kbar_3x3="_JSON [[-5.04640526, 0.46343741, 1.55227177], [0.46343743, -20.86792321, 0.73791185], [1.55227173, 0.73791184, -21.93044675]]" pbc="T T T"
Ti       2.55113364       9.26063134       0.00078009      -0.00257672       0.00203636       0.00225455
Ti       0.00713477       4.39342410      22.30078826      -0.00367183      -0.00265041      -0.00023130
Ti       1.27554977       1.88587175       0.61024070      -0.00288884      -0.00164575       0.00080736
Ti       3.81837816       6.75560115       0.61063558      -0.00256206      -0.00279963       0.00017575
Ti       2.71248769       4.08412681       1.38537969       0.00080082       0.00039298      -0.00251423
Ti       0.16680258       8.94790034       1.38843015       0.00134870       0.00265698      -0.00066499
Ti       1.03384459       6.22331793       2.12789449       0.00166674       0.00104900      -0.00197935
Ti       3.58343257       1.34828676       2.12355153       0.00291105       0.00088283      -0.00648757
Ti       0.22920976       3.50135814       2.76361981      -0.00066972      -0.00006443      -0.00139859
Ti       2.77448396       8.36587440       2.77036957      -0.00118804      -0.00040027      -0.00186886
Ti       1.10560971       0.86547608       3.50680119      -0.00168685      -0.00085067      -0.00260616
Ti       3.64928402       5.73918588       3.51137854      -0.00059685       0.00216428      -0.00066405
Ti       2.75688495       3.10320416       4.19120863       0.00156505       0.00266312       0.00011018
Ti       0.21404940       7.97009542       4.21327163       0.00010262      -0.00162489      -0.00170606
Ti       3.60669301       0.42618454       4.86606419      -0.00093242      -0.00003224       0.00029771
Ti       1.06434833       5.30066283       4.87047771       0.00051764       0.00217372       0.00012520
Ti       2.74999490       7.51258995       5.60303081       0.00039271      -0.00120561      -0.00087895
Ti       0.20285111       2.64755594       5.57940506      -0.00005946       0.00175833       0.00056743
Ti       3.60605262       4.86874409       6.30608150       0.00003238       0.00122624       0.00109404
Ti       1.06240678       9.72952749       6.31964829       0.00180521       0.00034729      -0.00111800
Ti       0.21929493       7.05839866       7.00730837      -0.00064054       0.00020472      -0.00212920
Ti       2.75152005       2.19613142       6.95933664      -0.00136216       0.00173902       0.00232205
Ti       1.09297359       4.42493066       7.66997626      -0.00088562       0.00086321      -0.00061279
Ti       3.62851100       9.28925174       7.66987791       0.00076825      -0.00072347      -0.00065877
Ti       0.20191130       1.78528683       8.38990377       0.00077235       0.00302397       0.00308296
Ti       2.77509724       6.64692153       8.44656218      -0.00128302       0.00036216      -0.00260471
Ti       1.02818663       8.80346145       9.08591134       0.00009679       0.00061065       0.00388786
Ti       3.57779777       3.94936757       9.04827501       0.00359750      -0.00014343      -0.00126758
Ti       2.68077499       1.24800914       9.75783614      -0.00391322       0.00011656       0.00199599
Ti       0.18426374       6.08792270       9.83426971      -0.00175543      -0.00219123       0.00214818
Ti       3.77297101       8.33253849      10.52291747       0.00078125       0.00301526       0.00486362
Ti       1.21655141       3.43959894      10.53127446      -0.00079539      -0.00294903      -0.00053080
Ti       5.05079381       0.91274134      11.18450850       0.00600643      -0.00241781       0.00300948
Ti       2.68487902       5.80420925      11.21132406       0.00469988       0.00230716      -0.00283152
Ti       3.74000489       3.40517178      11.77745412       0.00035667      -0.00276376       0.00201787
Ti       1.27265040       8.28607034      11.83080705      -0.00070203       0.00397550      -0.00092812
Ti       2.40526618       1.19727796      12.53954126      -0.00284075      -0.00069534       0.00369092
Cu       4.95636213       6.13239194      12.50179000      -0.00140982      -0.00231840      -0.00142863
Ti       1.40472218       4.00797390      13.27283429      -0.00075777      -0.00758903      -0.00484836
Ti       4.05986338       8.74785907      13.27131037      -0.00106115       0.00287718      -0.00092468
Ti       4.85463973       1.83936338      13.88769135       0.00049261      -0.00152205      -0.00141027
Ti       2.26195141       6.68139000      13.92948972       0.00174081       0.00450251       0.00174751
Ti       1.45382278       9.31794680      14.64456823      -0.00023578       0.00417549      -0.00211114
Ti       3.94196173       4.47566724      14.53294090       0.00105295      -0.00364404       0.00095335
Ti       4.94399731       7.06133041      15.31878395      -0.00060046       0.00382771       0.00085523
Ti       2.35332111       2.21099763      15.30675739       0.00065933      -0.00448007      -0.00366440
Ti       1.51447237       4.84822465      16.00101610       0.00257256       0.00076543       0.00492559
Ti       4.03821415       9.73489614      15.99569171       0.00159476      -0.00185579      -0.00229193
Ti       2.35555447       7.52809274      16.69440059       0.00005205       0.00227497       0.00140946
Ti       4.87156797       2.68271159      16.66155313      -0.00106506      -0.00284681      -0.00280364
Ti       4.02916511       5.31831338      17.42887562      -0.00044304       0.00105305      -0.00142376
Ti       1.47908153       0.44279622      17.44023927      -0.00213901      -0.00228737      -0.00404881
Ti       4.88793030       7.98554454      18.11033929      -0.00054442      -0.00143214      -0.00426328
Ti       2.33375034       3.11278948      18.10594164       0.00022675      -0.00083257       0.00077243
Ti       1.44745562       5.75030796      18.78601889      -0.00185265       0.00224067       0.00037369
Ti       3.99531899       0.88580829      18.76425536       0.00111707      -0.00063185       0.00068139
Ti       2.34195905       8.36974822      19.52674448       0.00099156      -0.00332102      -0.00107297
Ti       4.87782279       3.50157686      19.51245186      -0.00065182       0.00380544       0.00414400
Ti       1.52351807       1.34675212      20.17178703      -0.00056958       0.00006117       0.00291586
Ti       4.06333827       6.21394513      20.16904853      -0.00257180      -0.00259440       0.00143770
Ti       4.92416424       8.95480968      20.89525666      -0.00000114       0.00091163       0.00259561
Ti       2.37632668       4.07743253      20.89841142       0.00151104       0.00041741       0.00283173
Ti       3.82324213       1.88848038      21.68000103       0.00226602       0.00064173       0.00392112
Ti       1.27673314       6.75562554      21.68330636       0.00241491      -0.00261024       0.00195766
