64
Lattice="5.088765 0.0 0.0 0.0 9.739025 0.0 0.0 0.0 22.303587" Properties=species:S:1:pos:R:3:forces:R:3 job_name=T2-Cu-Cu-36-d-1.39 GB_type=T2 element=Cu system=Cu-36-d-1.39 distance=1.39 energy=-491.19528841 stress_kbar_3x3="_JSON [[-5.09041711, 0.47847194, 1.56126283], [0.47847188, -20.96989481, 0.83430839], [1.56126279, 0.83430838, -22.0029757]]" pbc="T T T"
Ti       2.55072077       9.26106212      22.30064295       0.00067015      -0.00036685       0.00334344
Ti       0.00627413       4.38941672       0.00030863       0.00139087       0.00620954      -0.00030054
Ti       1.27182542       1.88381603       0.60919186       0.00453650       0.00102525      -0.00167905
Ti       3.81913336       6.75342183       0.61008494       0.00708787       0.00338101      -0.00196468
Ti       2.71102340       4.07608180       1.38722677       0.00078976       0.00475830       0.00130045
Ti       0.16690073       8.95272005       1.38511195      -0.00000038      -0.00177861      -0.00390220
Ti       1.04022950       6.21798128       2.12278368      -0.00492067       0.00134226      -0.00483703
Ti       3.57792686       1.35407991       2.12652104      -0.00091353      -0.00208867      -0.00081603
Ti       0.23083575       3.49611715       2.77069703       0.00106377       0.00176143      -0.00199452
Ti       2.77348205       8.37115924       2.76425881      -0.00138269      -0.00230926      -0.00402783
Ti       1.10471734       0.87027112       3.51196017      -0.00191778      -0.00127422       0.00112151
Ti       3.64961060       5.73509212       3.50662114      -0.00003258       0.00100982      -0.00409802
Ti       2.75985151       3.10017123       4.21441107      -0.00214806       0.00035075       0.00345940
Ti       0.21241720       7.97238062       4.19330123      -0.00022143      -0.00052942       0.00024804
Ti       3.60975371       0.43186378       4.87180534       0.00407960      -0.00059178       0.00589789
Ti       1.06208054       5.29563208       4.86791063       0.00069818       0.00130277      -0.00074465
Ti       2.74725796       7.51697476       5.58127343      -0.00270945       0.00131653       0.00045730
Ti       0.20723352       2.64313747       5.60585551      -0.00121097       0.00021123      -0.00204354
Ti       3.60718997       4.86015962       6.32147204       0.00221118      -0.00288985      -0.00254327
Ti       1.06337813      -0.00010229       6.30764065      -0.00248102       0.00154687       0.00198986
Ti       0.20611696       7.06601074       6.96224289      -0.00177166      -0.00097691      -0.00071435
Ti       2.76583845       2.18891560       7.01021236      -0.00658043      -0.00326814      -0.00308824
Ti       1.08523604       4.41984214       7.67319884       0.00069675      -0.00670118      -0.00017947
Ti       3.63833141       9.29574644       7.67152737      -0.00180891       0.00346133      -0.00444536
Ti       0.23329882       1.77622252       8.44897896      -0.00293036      -0.00491340      -0.00114755
Ti       2.74490371       6.65586133       8.39150798       0.00507168       0.00017994      -0.00110573
Ti       1.03414445       8.81972718       9.05023422       0.00282215       0.00018179       0.00065622
Ti       3.57517614       3.93375141       9.08735190      -0.00694211       0.00055223       0.00141798
Ti       2.73102359       1.21790368       9.83878555       0.00241916      -0.00327896      -0.00665719
Ti       0.13338230       6.11641107       9.76002423      -0.00060583       0.00164789      -0.00351368
Ti       3.76166204       8.30980326      10.53227969      -0.00227935      -0.00273391       0.00445525
Ti       1.23072810       3.46193975      10.52288861      -0.00121188       0.00739692       0.00329737
Ti       0.14390790       0.93551262      11.21440594      -0.00155793      -0.00191247      -0.00536335
Ti       2.50566590       5.78233801      11.18214543       0.00003379      -0.00164866       0.00156456
Ti       3.82012597       3.42114533      11.83187448       0.00100860      -0.00610890      -0.00342949
Ti       1.19589437       8.27488582      11.77912817      -0.00366304       0.00276274      -0.00401732
Cu       2.41374011       1.26748228      12.50402537       0.00115194       0.00264886      -0.00059755
Ti       4.94572018       6.07000153      12.53981319       0.00146633      -0.00216407       0.00062645
Ti       1.51474380       3.87825582      13.26982887      -0.00200864      -0.00211235       0.00048314
Ti       3.94735957       8.87975831      13.27204328       0.00298325      -0.00196704      -0.00360383
Ti       4.80690711       1.81378652      13.93026390       0.00152988      -0.00175162       0.00356901
Ti       2.30879171       6.70865438      13.88570665      -0.00148405      -0.00118199      -0.00131709
Ti       1.39757581       9.34626621      14.53068269      -0.00182983       0.00177219       0.00129846
Ti       3.99825545       4.44966246      14.64329341       0.00041412       0.00004852       0.00401004
Ti       4.89654471       7.08148797      15.30421326       0.00324742       0.00683890      -0.00044992
Ti       2.39980013       2.19327788      15.31883304      -0.00234924      -0.00627970      -0.00101383
Ti       1.49324298       4.86553704      15.99350022       0.00584551       0.00039874       0.00339581
Ti       4.05910382       9.71976801      16.00071889      -0.00351314      -0.00287217       0.00618321
Ti       2.32629208       7.55294951      16.65762650       0.00071136       0.00242022      -0.00145851
Ti       4.90028064       2.66048273      16.69368723      -0.00270235      -0.00234238       0.00036607
Ti       4.02211728       5.31272443      17.43786033       0.00141231      -0.00466282      -0.00083046
Ti       1.48205540       0.44855330      17.42715604       0.00734846       0.00469757       0.00174594
Ti       4.87695104       7.98110996      18.10422270       0.00390540       0.00155818       0.00033386
Ti       2.34448775       3.11527484      18.10862607       0.00041076      -0.00410373      -0.00020498
Ti       1.45109271       5.75436916      18.76131314      -0.00441714      -0.00136754      -0.00219044
Ti       3.99072039       0.87913676      18.78352634       0.00231042       0.00368405      -0.00449248
Ti       2.33261252       8.36912743      19.51081852      -0.00254948       0.00148711       0.00323820
Ti       4.88640283       3.49818235      19.52457534       0.00621609      -0.00013072       0.00106061
Ti       1.51853431       1.34181935      20.16743226      -0.00209280       0.00497314      -0.00045255
Ti       4.06871614       6.21469638      20.17085703      -0.00231304      -0.00049287       0.00880516
Ti       4.91917148       8.94496482      20.89736441       0.00054391       0.00209624       0.00113633
Ti       2.37910958       4.08470724      20.89372697      -0.00002123       0.00043379       0.00567259
Ti       3.81971931       1.88457456      21.68107139      -0.00151918       0.00290707       0.00118802
Ti       1.27824487       6.75659497      21.67899434       0.00001305      -0.00156300       0.00690259
