64
Lattice="5.088765 0.0 0.0 0.0 9.739025 0.0 0.0 0.0 22.303587" Properties=species:S:1:pos:R:3:forces:R:3 job_name=T2-Cu-Cu-46-d-4.86 GB_type=T2 element=Cu system=Cu-46-d-4.86 distance=4.86 energy=-491.01580713 stress_kbar_3x3="_JSON [[-4.06485605, 0.20674381, -0.33463251], [0.20674381, -20.47608964, 5.07339037], [-0.3346325, 5.07339037, -20.23390489]]" pbc="T T T"
Ti       2.55935913       9.29722812       0.05225932       0.00263530      -0.00005408      -0.00284676
Ti       0.01623513       4.42872686       0.06652403      -0.00051186       0.00180324      -0.00063231
Ti       1.30438166       1.97652421       0.57277864       0.00163170      -0.00090664      -0.00646491
Ti       3.83310652       6.84985006       0.55193972      -0.00149895       0.00449505      -0.00791985
Ti       2.62250011       4.23291706       1.32995080       0.00366637       0.00210936      -0.00243981
Ti       0.07232913       9.09517227       1.32566459       0.00005703       0.00475353      -0.00635468
Ti       0.96976621       6.30246996       2.12050605      -0.00187702       0.00082450       0.00210387
Ti       3.52145561       1.42523121       2.13772383      -0.00219256       0.00031516       0.00188011
Ti       0.24418753       3.51579209       2.75933465      -0.00125681      -0.00255296       0.00349440
Ti       2.78417373       8.38604603       2.75490454       0.00028870       0.00439340       0.00082061
Ti       1.09244025       0.85037305       3.50677661       0.00000269       0.00136022      -0.00134034
Ti       3.63633713       5.72075541       3.50250361      -0.00025269       0.00324410       0.00072949
Ti       2.72941625       3.11221636       4.20490406      -0.00063284       0.00068900      -0.00245989
Ti       0.18561813       7.98563615       4.19751219      -0.00155489       0.00211186      -0.00285222
Ti       3.58618597       0.43097088       4.84561294       0.00160265       0.00215680      -0.00509273
Ti       1.04418128       5.30316196       4.83669711       0.00094678       0.00103778      -0.00217353
Ti       2.72732723       7.52077716       5.58131170      -0.00082642      -0.00103812      -0.00134531
Ti       0.18071151       2.64554755       5.58274034      -0.00043004       0.00033918       0.00201887
Ti       3.58478378       4.85422397       6.31718610       0.00148510      -0.00229114       0.00383453
Ti       1.04295120       9.72762058       6.31586408       0.00201580      -0.00009378       0.00487535
Ti       0.17885400       7.05391534       6.93809066       0.00014803      -0.00166489       0.00412699
Ti       2.72480882       2.18320811       6.95017331      -0.00111429      -0.00125414       0.00607292
Ti       1.08859618       4.44630678       7.65829757      -0.00180974      -0.00262444       0.00498809
Ti       3.63994287       9.32794724       7.66496227      -0.00165428       0.00039971       0.00489725
Ti       0.25898616       1.77229528       8.39721528      -0.00006781      -0.00316641       0.00467767
Ti       2.80366026       6.63943305       8.37839296       0.00015415      -0.00149253       0.00475417
Ti       0.99014131       8.72013368       9.01561240      -0.00067346      -0.00047367       0.01153005
Ti       3.51241037       3.84249936       9.03760063       0.00237258       0.00020847      -0.00573938
Ti       2.59685244       1.05180479       9.85914081       0.00040613      -0.00572525       0.00556329
Ti       0.05785654       5.91240532       9.82724819      -0.00435395      -0.00076467       0.00018970
Ti       3.85797996       8.18961566      10.55785241       0.00024933       0.00403835       0.00635532
Ti       1.29110323       3.32084751      10.60154062       0.00050035      -0.00690312       0.00075537
Ti       0.03472125       0.87643145      11.06790550       0.00154640      -0.00916134      -0.00406934
Ti       2.56204897       5.75684337      11.06345982      -0.00389947       0.00379307      -0.01226451
Ti       3.85791913       3.48035693      11.81619085      -0.00073330      -0.00930970      -0.00157974
Ti       1.34059063       8.32333633      11.78823648       0.00134604       0.00639757      -0.00489632
Ti       2.29144312       1.34483782      12.61856764      -0.00329169      -0.01028054       0.00303911
Ti       4.83428051       6.20264165      12.58742640       0.00190035       0.00946310      -0.00953843
Ti       1.47193719       4.08674784      13.31030009      -0.00062551      -0.00954783      -0.00289441
Ti       4.05727085       8.94845476      13.24548441       0.00257546       0.00702917      -0.00891277
Ti       4.92989113       1.82593008      13.94768359      -0.00471110      -0.00593929      -0.00523411
Ti       2.43513985       6.70090227      13.98551789      -0.00256652       0.00819537      -0.00296044
Ti       1.47497435       9.27944086      14.67368826      -0.00017842       0.00575204      -0.00388562
Ti       4.08436827       4.44005857      14.70005382       0.00137710      -0.00740425      -0.00093590
Ti       4.96847399       7.07654239      15.30083267       0.00227428       0.00978166      -0.00058808
Ti       2.36520143       2.24517517      15.33623845      -0.00016341      -0.00726824      -0.00766760
Cu       1.54782853       4.88335166      16.02266339       0.00290712      -0.00205836       0.00406622
Ti       4.02952998       9.73135694      16.01087553       0.00062819      -0.00095636      -0.00480340
Ti       2.34829021       7.49503806      16.73207138      -0.00191594       0.00694895       0.00569268
Ti       4.95502520       2.66706433      16.74722587      -0.00073661      -0.00649842       0.00211390
Ti       4.10456895       5.31465533      17.39579670      -0.00031542       0.00465000       0.00818467
Ti       1.51252481       0.49474867      17.40768856      -0.00000974       0.00093033       0.00622480
Ti       4.90625962       7.98747230      18.13007968      -0.00226526       0.00233881       0.01527152
Ti       2.38463484       3.12260043      18.10495247       0.00145755      -0.00401118       0.00242753
Ti       1.41380488       5.72679190      18.76189362       0.00172627       0.00238406       0.00693018
Ti       3.99419595       0.86406455      18.79259225      -0.00382027      -0.00231911       0.00505213
Ti       2.35579427       8.33278516      19.50787680       0.00236296       0.00412911       0.00203873
Ti       4.90255393       3.45177747      19.52841665       0.00187919       0.00125367       0.00255422
Ti       1.52590437       1.27299077      20.16505560       0.00107583      -0.00960438      -0.00363195
Ti       4.03721656       6.12909241      20.13836073      -0.00068431       0.00444274      -0.00109969
Ti       4.84696764       8.87270050      20.86649971       0.00270068       0.00162814      -0.00636546
Ti       2.30000789       4.01553514      20.85986582       0.00246434      -0.00420773      -0.00486618
Ti       3.85135611       1.86860923      21.68741220      -0.00046473      -0.00115139       0.00144425
Ti       1.29220827       6.72969738      21.65432495       0.00070486       0.00732651      -0.00485232
