64
Lattice="5.088765 0.0 0.0 0.0 9.739025 0.0 0.0 0.0 22.303587" Properties=species:S:1:pos:R:3:forces:R:3 job_name=T2-Cu-Cu-42-d-3.50 GB_type=T2 element=Cu system=Cu-42-d-3.50 distance=3.5 energy=-491.10302366 stress_kbar_3x3="_JSON [[-3.69727654, -3.53244587, 0.10022277], [-3.53244584, -21.50928912, -1.84336392], [0.10022274, -1.8433639, -21.24320448]]" pbc="T T T"
Ti       2.57659569       9.26578557       0.05851186      -0.00198491       0.00932497       0.00008854
Ti       0.04302828       4.39830722       0.05378771      -0.00346743       0.00407823       0.00991074
Ti       1.30605005       1.94881958       0.59959730      -0.00097490      -0.00419823      -0.01209162
Ti       3.85010512       6.81506163       0.61306302       0.00232345       0.00473506      -0.00041662
Ti       2.64229176       4.20850422       1.32791469       0.00534255       0.01196208      -0.01003852
Ti       0.09907803       9.07928151       1.33084376      -0.00369991       0.01212185      -0.00759785
Ti       1.05247725       6.33503151       2.13376259      -0.01036924       0.00667501      -0.00196044
Ti       3.58839569       1.46461586       2.13329760      -0.00051959       0.00036532       0.00038238
Ti       0.25021055       3.61383093       2.76499439      -0.00982452      -0.00470115       0.00502605
Ti       2.79160520       8.48305483       2.77039812       0.00287074      -0.00030779       0.00387649
Ti       1.10743048       0.94795328       3.48779440      -0.00494266      -0.00346577       0.00703207
Ti       3.65128493       5.81389577       3.48934657       0.00117021      -0.00191971       0.00183582
Ti       2.73484351       3.21455428       4.19739157       0.00431897      -0.00417301       0.00699243
Ti       0.19003133       8.08459850       4.19641940       0.00066387       0.00144867       0.00059625
Ti       3.60064039       0.54671972       4.87651097      -0.00065624       0.00277597      -0.00350614
Ti       1.05834741       5.41732286       4.86811271      -0.00096530      -0.00025463       0.00480212
Ti       2.75231141       7.62722409       5.55895091      -0.00427844       0.00137657       0.00395445
Ti       0.20912240       2.75478868       5.55345660      -0.00001002       0.00201288      -0.00201650
Ti       3.60574520       4.97253701       6.31702797      -0.00105408       0.00230127       0.00125575
Ti       1.05575774       0.09853607       6.31671640       0.00213153       0.00076847       0.00120566
Ti       0.20636917       7.18126387       6.98182007      -0.00176758      -0.00142762       0.00491586
Ti       2.75179193       2.30972469       6.99121991      -0.00468244      -0.00037069       0.00123447
Ti       1.08800988       4.52603014       7.65507887       0.00207508      -0.00197440       0.00185724
Ti       3.62672770       9.38945236       7.67434002      -0.00121203      -0.00831233       0.00102119
Ti       0.16081620       1.92912830       8.37345345       0.00247479       0.00047734       0.00080792
Ti       2.70217729       6.80337095       8.38820292       0.00340431       0.00134976      -0.00184897
Ti       0.98965127       8.97805873       9.09025918       0.00088431       0.00132633      -0.00135400
Ti       3.55048167       4.12413582       9.09125810      -0.00343440       0.00529565      -0.00309462
Ti       2.75367453       1.37229702       9.72679366      -0.00090121       0.00158676      -0.00202295
Ti       0.21218266       6.25702079       9.71381319      -0.00337182       0.00403331      -0.00602682
Ti       3.68110375       8.39141815      10.62647054       0.00171840      -0.00270381       0.00166619
Ti       1.19219300       3.49705277      10.54629558       0.00414473       0.00080404      -0.00616604
Ti       5.03913055       0.91973709      11.21068558      -0.00286208      -0.00610026      -0.00311222
Ti       2.48516149       5.78017859      11.26837129       0.00287892      -0.00039118      -0.00104095
Ti       3.76047623       3.32165017      11.77322355      -0.00324553       0.00073544       0.00000282
Ti       1.17637848       8.20837849      11.79931520      -0.00392704       0.00271868      -0.00579367
Ti       2.47062927       0.99283153      12.52106526       0.00667659       0.00301848      -0.00635850
Ti       5.02719335       5.90424564      12.46229714      -0.00258205       0.00672111      -0.00605340
Ti       1.51254583       3.75218344      13.31785009       0.00465809      -0.00046109      -0.00342232
Ti       4.10068273       8.66435220      13.37179501       0.00151510      -0.00022826      -0.01027564
Ti       4.92224128       1.68547078      13.92475214      -0.00631363       0.00338534      -0.00265546
Ti       2.24680892       6.57864718      13.93471035       0.00738182       0.00354429      -0.00035021
Cu       1.52170573       9.18232306      14.63434929       0.00026432       0.00057611       0.00296740
Ti       3.96900367       4.39656011      14.62141029      -0.00249906      -0.00436628       0.00655226
Ti       4.95944758       6.98319510      15.41273297      -0.00636612      -0.00459456       0.00898477
Ti       2.40353840       2.02165763      15.29499174       0.00176526       0.00302189       0.00921928
Ti       1.49981694       4.77657536      15.98683222       0.00159962       0.00450285       0.00336125
Ti       4.14356752       9.63286436      15.98884412       0.00603516       0.00177469       0.01131244
Ti       2.38277588       7.45356939      16.64639122       0.00168165      -0.00330050       0.00590753
Ti       4.87611170       2.58266394      16.67474526       0.00205158      -0.00741014       0.00035040
Ti       4.01230011       5.20596614      17.45100809       0.00392463       0.00098177      -0.00247524
Ti       1.44340096       0.33410739      17.40369033      -0.00466236      -0.00571992       0.00851964
Ti       4.85384653       7.86245507      18.14008561       0.00756746       0.00095507      -0.00257261
Ti       2.31605347       3.00849708      18.11001173       0.00060491      -0.01090452      -0.00085493
Ti       1.45803186       5.68116961      18.75640220      -0.00572099       0.00441026      -0.00752283
Ti       3.99737694       0.78598259      18.73056886       0.00176710      -0.00387297      -0.00294422
Ti       2.35071224       8.28894663      19.50537343      -0.00638689       0.00287795       0.00116604
Ti       4.90247386       3.38992273      19.52114849      -0.00248584      -0.00817398       0.00094022
Ti       1.52294448       1.23575124      20.18539432       0.00702528      -0.01640542      -0.00038916
Ti       4.05756263       6.10045363      20.21165150       0.00975634      -0.00395784      -0.00002703
Ti       4.85227365       8.85051646      20.86344517       0.00298614      -0.00249378      -0.00178825
Ti       2.31827275       3.96782470      20.84664046       0.00480978      -0.00925644      -0.00181386
Ti       3.86150370       1.82635807      21.66540535      -0.00210327      -0.00217338       0.00084597
Ti       1.31983707       6.70624761      21.66196756      -0.00120111       0.00957618      -0.00100005
