64
Lattice="5.088765 0.0 0.0 0.0 9.739025 0.0 0.0 0.0 22.303587" Properties=species:S:1:pos:R:3:forces:R:3 job_name=T2-Cu-Cu-47-d-4.86 GB_type=T2 element=Cu system=Cu-47-d-4.86 distance=4.86 energy=-491.0161851 stress_kbar_3x3="_JSON [[-3.68726167, 0.16318087, -0.45663203], [0.16318086, -19.8878385, 5.25126579], [-0.45663203, 5.25126577, -19.46411804]]" pbc="T T T"
Ti       2.55990257       9.30195670       0.07155955      -0.00166408      -0.00031744       0.00333778
Ti       0.01596987       4.43165214       0.05960911       0.00024717       0.00485464      -0.00067449
Ti       1.28820964       1.98522812       0.54928988       0.00125280       0.00721717       0.00071566
Ti       3.84835230       6.85445585       0.56893059      -0.00262502       0.00501918      -0.00449929
Ti       2.61303156       4.23330418       1.32126320      -0.00333699       0.00863954      -0.00188440
Ti       0.07281614       9.11178200       1.32532107       0.00000662       0.00764199      -0.00050976
Ti       0.96905953       6.30097072       2.13613004       0.00289453       0.00185238       0.01029001
Ti       3.50545815       1.43729282       2.12079216      -0.00012754       0.00309791       0.00800678
Ti       0.23873082       3.51812392       2.75271259       0.00869600      -0.00120555       0.01006280
Ti       2.78796218       8.38805436       2.75693553       0.00618608      -0.00186395       0.00836031
Ti       1.08519737       0.85221259       3.50374893       0.00545891      -0.00065645       0.00240726
Ti       3.63083306       5.72117624       3.50720298       0.00373673      -0.00209860       0.00500145
Ti       2.72717328       3.11475770       4.19669431      -0.00100735       0.00279576       0.00638654
Ti       0.18249002       7.98306953       4.20443172      -0.00194477      -0.00261305       0.00730621
Ti       3.58661123       0.43280649       4.83721502      -0.00126373      -0.00124040       0.00051636
Ti       1.04169709       5.29897553       4.84479457      -0.00449090       0.00109490       0.00001175
Ti       2.71975708       7.51610353       5.58233744       0.01018627      -0.00108727      -0.00366419
Ti       0.17762729       2.64945768       5.58151149       0.00631415       0.00229485      -0.00102592
Ti       3.58762468       4.85642079       6.31276859       0.00111730       0.00359193       0.00021611
Ti       1.04110802       9.72419500       6.31440324      -0.00064476       0.00080025       0.00080918
Ti       0.17777152       7.05462229       6.94330296      -0.00132460      -0.00506876      -0.00237969
Ti       2.72012811       2.18581004       6.93239649      -0.00140056      -0.00434248      -0.00049627
Ti       1.09012204       4.45760957       7.66408522       0.00062221      -0.00135718      -0.00478479
Ti       3.62776205       9.31878407       7.65716983      -0.00064951      -0.00431668      -0.00462685
Ti       0.26424183       1.76445444       8.37799125      -0.00245843       0.00555330      -0.00810322
Ti       2.80873601       6.63792888       8.39698494      -0.00237660       0.00566757      -0.00442309
Ti       0.96385517       8.70391944       9.04186564       0.00130631       0.00382192      -0.00786971
Ti       3.53308710       3.83911733       9.01778021      -0.00418292       0.00538234      -0.00689436
Ti       2.59903953       1.03201953       9.83540395      -0.00098288      -0.00136138      -0.00501999
Ti       0.04883462       5.91376921       9.86619066       0.00031099      -0.00021765      -0.00359088
Ti       3.83860394       8.18967854      10.60898572      -0.00663798      -0.01140840       0.00103600
Ti       1.31566241       3.31339175      10.56118978      -0.00101138      -0.00421073      -0.00040098
Ti       0.01887779       0.88415800      11.06328182      -0.00265605      -0.00573289      -0.00052828
Ti       2.57977498       5.74564983      11.06586098      -0.00161771      -0.00545628       0.00321473
Ti       3.89244784       3.45258879      11.78883121      -0.00538501      -0.00470094       0.00491376
Ti       1.31766262       8.35423690      11.81730444      -0.00079326      -0.01216057       0.00029158
Ti       2.29175415       1.33328083      12.59133337      -0.00503525      -0.00605975       0.00775624
Ti       4.83679818       6.21932199      12.61801664      -0.00267041      -0.00743592       0.00814404
Ti       1.51917513       4.07882763      13.24122144      -0.00085564       0.00165731       0.01508995
Ti       4.02248695       8.96201410      13.30694035      -0.00554494      -0.00200557      -0.00324836
Ti       4.98583077       1.83003055      13.98612385      -0.00212266       0.01107573       0.00171203
Ti       2.38434104       6.70338367      13.95055830      -0.00051309      -0.00746616      -0.00025718
Ti       1.54499178       9.31547195      14.69956731       0.00142257      -0.00783577      -0.00258695
Ti       4.02396252       4.41096965      14.67508549      -0.00365869      -0.00184502       0.00468005
Ti       4.91803920       7.12110384      15.33868251      -0.00158100      -0.01525198       0.00136895
Ti       2.42607281       2.20683809      15.29919556      -0.00270746       0.00884273      -0.00154922
Ti       1.48485362       4.85885792      16.01075845       0.00310698       0.00270116       0.00246747
Cu       4.09341728       0.01323186      16.02097550      -0.00096413       0.00022995       0.00201232
Ti       2.41201533       7.53902553      16.74661857      -0.00474700      -0.01014765       0.00386490
Ti       4.89615411       2.62287791      16.72774115       0.00100043       0.01146729      -0.00231023
Ti       4.05551112       5.36357751      17.40392642       0.00591428       0.00449075       0.00091009
Ti       1.56007063       0.44491159      17.39176688       0.00245259       0.00316218       0.00866874
Ti       4.93218389       7.99071932      18.10535205       0.00175071      -0.00987713       0.00262034
Ti       2.36269242       3.11287196      18.12618033      -0.00316486       0.00674667      -0.00196669
Ti       1.45295513       5.73357796      18.78718083       0.00029861       0.00347967      -0.00315891
Ti       3.95892437       0.85255924      18.75859239       0.00241692       0.00241293       0.00502342
Ti       2.35807076       8.31950069      19.52894307       0.00350599      -0.00298588      -0.00508706
Ti       4.90187757       3.45736577      19.50614304       0.00568988       0.00693357      -0.00445061
Ti       1.49786939       1.25288112      20.14053021      -0.00099284       0.00119068      -0.00875721
Ti       4.07469948       6.14037370      20.16839119      -0.00122053      -0.00215195      -0.00926543
Ti       4.84151611       8.88372096      20.86330291      -0.00008034      -0.00097197      -0.01302534
Ti       2.30002220       4.00158093      20.86875284      -0.00232117       0.00915657      -0.01078991
Ti       3.83545390       1.85989979      21.66333970       0.00461164       0.00358317      -0.00559885
Ti       1.30761302       6.74214917      21.69256234       0.00625534      -0.00100461      -0.00377468
