64
Lattice="5.088765 0.0 0.0 0.0 9.739025 0.0 0.0 0.0 22.303587" Properties=species:S:1:pos:R:3:forces:R:3 job_name=T2-Cu-Cu-40-d-2.77 GB_type=T2 element=Cu system=Cu-40-d-2.77 distance=2.77 energy=-491.08701181 stress_kbar_3x3="_JSON [[-5.06761482, -0.18702753, 0.52014768], [-0.18702751, -23.07638996, -0.3943508], [0.52014766, -0.39435081, -22.54757124]]" pbc="T T T"
Ti       2.55051299       9.25001604      22.29873328       0.00273707       0.00610860      -0.00689179
Ti       0.00494685       4.38209130      22.28591832      -0.00200200       0.00396739      -0.00983635
Ti       1.27764441       1.87823052       0.61217967      -0.00367992       0.00376931      -0.00534170
Ti       3.81696140       6.74415507       0.61259771       0.00271336       0.00678826      -0.00103542
Ti       2.71368226       4.07223002       1.38761855       0.01113931       0.00614908       0.00333506
Ti       0.16562973       8.94209776       1.38312708       0.01084276       0.00395580       0.00146419
Ti       1.04047782       6.21976698       2.11486311      -0.00663318      -0.00202338       0.00351745
Ti       3.58767766       1.35152333       2.12109452      -0.00088463      -0.00136284      -0.00710607
Ti       0.22367278       3.50564045       2.76529880       0.00489707      -0.00118221      -0.00073198
Ti       2.76918350       8.37206609       2.76856202      -0.00407999      -0.00373150      -0.00624810
Ti       1.10334655       0.87643407       3.49569096       0.00424319      -0.00161634       0.01305842
Ti       3.64788682       5.74362973       3.50746474      -0.00262939       0.00427896       0.00311100
Ti       2.75760149       3.10628417       4.20005082       0.00487130      -0.00010847      -0.00288391
Ti       0.21006047       7.97666537       4.18562463       0.00826529      -0.00101748      -0.00591935
Ti       3.61380343       0.44418243       4.86924829       0.00884909      -0.00278423      -0.00220268
Ti       1.06725978       5.30595311       4.85737274       0.00871517       0.00374182      -0.00163484
Ti       2.75504045       7.52809945       5.59236916      -0.00139421       0.00243367      -0.00431513
Ti       0.21461902       2.65439787       5.59198736       0.00061273       0.00155097       0.00237508
Ti       3.60783894       4.86561049       6.30901496       0.00279764      -0.00266931       0.00133415
Ti       1.06479029       9.73615276       6.28586720       0.00101772       0.00375883       0.00676857
Ti       0.20842039       7.06897856       6.96693988       0.00091360       0.00166096      -0.00111185
Ti       2.75552331       2.19505440       7.00557251       0.00231109      -0.00357564       0.00371027
Ti       1.10346477       4.43382281       7.66484586       0.00601790      -0.00156715       0.00038819
Ti       3.64742623       9.31352123       7.68416510       0.00864817       0.00403838       0.00209138
Ti       0.24277285       1.78109567       8.40011964       0.00083179       0.00090293       0.01007774
Ti       2.76846868       6.67584617       8.40718910       0.00444349      -0.00045189      -0.00081312
Ti       1.06409059       8.83835012       9.02214136       0.00417984       0.00519909       0.00069732
Ti       3.60850291       3.95083316       9.06332105      -0.00878000      -0.00632609       0.01356279
Ti       2.73822661       1.25113721       9.89947399      -0.00371734      -0.00886575       0.00802035
Ti       0.15798696       6.11648619       9.76041029       0.00235927      -0.00279772      -0.00334637
Ti       3.82904644       8.32264002      10.54563211       0.01283849       0.00432132       0.00396306
Ti       1.25670458       3.46808741      10.49857941      -0.00130304       0.00352055       0.00519607
Ti       0.07604696       0.94057056      11.16822781      -0.00041165       0.00297307      -0.01091077
Ti       2.55585037       5.80031602      11.15802743      -0.00012593      -0.00709701       0.00113726
Ti       3.81617968       3.40484503      11.83992632      -0.00790814      -0.00941056       0.01028948
Ti       1.28257001       8.30408817      11.75844023       0.01138372      -0.00804993      -0.00599519
Ti       2.32327063       1.24548388      12.66185013      -0.00353848      -0.00998695       0.00328010
Ti       4.93580693       6.05681427      12.56603209      -0.00230988      -0.00659660      -0.00384393
Ti       1.40549192       3.96850494      13.25750848      -0.00996572       0.01405750       0.00179679
Ti       4.08502822       8.86220790      13.24736208       0.01510757       0.00736547       0.00043116
Cu       4.82738799       1.76234362      13.93609774      -0.00005629       0.00155458       0.00912213
Ti       2.36081471       6.70982729      13.89653294      -0.01126805       0.00977624      -0.00197992
Ti       1.38752571       9.30640654      14.70956166      -0.00840892       0.00322705       0.01580097
Ti       3.94802031       4.36215117      14.59819002      -0.00437688       0.00958496      -0.01475256
Ti       4.85975793       7.08010224      15.29745703      -0.00132433      -0.00509992      -0.00843135
Ti       2.22807024       2.20632734      15.30550853      -0.00278764       0.00090289       0.00129935
Ti       1.48295153       4.89173537      15.97894222      -0.01443600      -0.00222464      -0.00557735
Ti       3.96743738       0.01724067      15.95125368      -0.00678560      -0.00299827      -0.00273617
Ti       2.34458183       7.51125277      16.73359856       0.00228517       0.00406008      -0.00458244
Ti       4.91647822       2.63813251      16.69506310       0.00134686      -0.00605478      -0.00508441
Ti       4.03619422       5.30291619      17.41749241       0.00043853      -0.00671603       0.00669737
Ti       1.49530531       0.42071540      17.44834625      -0.01051009       0.00197211      -0.00735697
Ti       4.87883161       7.98307408      18.06802044      -0.01267088       0.00084102      -0.01171902
Ti       2.34323591       3.09320481      18.05377805      -0.01341299      -0.00802411      -0.00361832
Ti       1.44475635       5.73253713      18.80300140      -0.00370808      -0.01348750      -0.00002882
Ti       3.99231084       0.88180765      18.79087364       0.00302070       0.00050662       0.00560177
Ti       2.32232193       8.36899601      19.53549501       0.00329428       0.00051029      -0.00207954
Ti       4.86864745       3.50863821      19.51114580      -0.00024075      -0.00294417      -0.00069462
Ti       1.51280704       1.35914911      20.17351231       0.00105279       0.00210942       0.00778287
Ti       4.04852724       6.22677106      20.15671652       0.00205233      -0.00410492      -0.00519371
Ti       4.93257711       8.94307290      20.89101294       0.00353283      -0.00364662      -0.00840088
Ti       2.39414406       4.05994170      20.89293778       0.00152984      -0.00070580       0.00655020
Ti       3.83165008       1.86991152      21.67405342      -0.00520463       0.00975138       0.00351189
Ti       1.27772160       6.74049372      21.67219361      -0.00473534       0.00188916       0.00643220
