64
Lattice="5.088765 0.0 0.0 0.0 9.739025 0.0 0.0 0.0 22.303587" Properties=species:S:1:pos:R:3:forces:R:3 job_name=T2-Cu-Cu-44-d-4.19 GB_type=T2 element=Cu system=Cu-44-d-4.19 distance=4.19 energy=-491.09379739 stress_kbar_3x3="_JSON [[-1.6679585, -8.67354171, -0.3166804], [-8.67354171, -19.41899702, 1.31930899], [-0.31668041, 1.31930901, -19.70318523]]" pbc="T T T"
Ti       2.58324257       9.34011693       0.08865365       0.00141427       0.00142422       0.00115448
Ti       0.02809964       4.47570653       0.09735704       0.00018799       0.00208894       0.00052400
Ti       1.30855883       2.03956522       0.57428183       0.00112327       0.00145471       0.00043958
Ti       3.85063719       6.90886331       0.56132444       0.00069041       0.00144193      -0.00120893
Ti       2.59639882       4.31458307       1.30150958       0.00078066       0.00203152      -0.00202220
Ti       0.05798193       9.17818113       1.27325231       0.00068805       0.00087797      -0.00220268
Ti       0.98945231       6.40870114       2.13009100      -0.00094045       0.00177528      -0.00251016
Ti       3.54433857       1.53421334       2.13680907      -0.00230295       0.00293981       0.00015423
Ti       0.27206955       3.61163781       2.78197235       0.00084556      -0.00097693       0.00003118
Ti       2.82287756       8.48003481       2.77114247       0.00022162       0.00003811      -0.00220321
Ti       1.10444271       0.91980654       3.47136752       0.00247501       0.00088544      -0.00159897
Ti       3.64523057       5.79590416       3.47863363       0.00152160      -0.00168525      -0.00105122
Ti       2.71438036       3.20515898       4.23024819       0.00012310      -0.00081522      -0.00092800
Ti       0.17303750       8.07791174       4.22707348      -0.00018406      -0.00006395       0.00049756
Ti       3.59239607       0.55349804       4.84535789       0.00011563       0.00163157       0.00212596
Ti       1.05012078       5.42521117       4.84814678      -0.00077927      -0.00062851       0.00104528
Ti       2.75773728       7.60975141       5.54349035       0.00105552       0.00174326       0.00243278
Ti       0.21348799       2.73665774       5.54214904       0.00035094       0.00067670       0.00092979
Ti       3.62106378       4.95748160       6.31208490       0.00011497      -0.00101669       0.00045382
Ti       1.07589388       0.08875292       6.31147605      -0.00282505       0.00063541       0.00237181
Ti       0.22284376       7.15233631       7.02285478       0.00031101       0.00075764       0.00043896
Ti       2.77008372       2.28190344       7.02037567       0.00058305      -0.00058983       0.00074876
Ti       1.12479144       4.51011750       7.60169255       0.00059744      -0.00006926      -0.00019958
Ti       3.66876746       9.38006390       7.60182494       0.00166677       0.00210408      -0.00143999
Ti       0.16835789       1.93436385       8.38124166      -0.00112529      -0.00134984      -0.00177576
Ti       2.71754538       6.80100908       8.37908300      -0.00180587       0.00059394       0.00022310
Ti       0.98541442       8.99604321       9.05786589       0.00083110       0.00091013      -0.00044574
Ti       3.53199168       4.13112629       9.07113087       0.00007817      -0.00152754      -0.00015104
Ti       2.88153853       1.25547456       9.72522163      -0.00053058       0.00087107      -0.00367991
Ti       0.36099826       6.11483957       9.73306077       0.00134037       0.00168561      -0.00198779
Ti       3.82561534       8.24023390      10.58219934      -0.00262751       0.00055555      -0.00019186
Ti       1.27987337       3.38380174      10.57780929      -0.00136385       0.00054539      -0.00064337
Ti       0.02399528       0.77921373      11.35960619       0.00077225       0.00111187      -0.00103806
Ti       2.59454601       5.63858693      11.40211063      -0.00042361       0.00054827      -0.00275513
Ti       3.82456393       3.18320255      11.68520019       0.00048556       0.00001736       0.00127669
Ti       1.28715811       8.06237644      11.65317980      -0.00014747       0.00138387      -0.00182451
Ti       2.57483548       0.84783119      12.45940273      -0.00304523       0.00166270      -0.00242592
Ti       0.03432735       5.76466213      12.49498168      -0.00113529       0.00066511       0.00094979
Ti       1.66737243       3.62017217      13.29182830      -0.00019220       0.00033213       0.00400914
Ti       4.27791410       8.49621284      13.31370582      -0.00146218       0.00030451       0.00154093
Ti       4.69226698       1.77655121      13.99894227       0.00222102       0.00111766       0.00167191
Ti       2.14660374       6.74433464      13.97436824      -0.00166992      -0.00521279       0.00426982
Ti       1.36852909       9.41024612      14.72626752      -0.00052502      -0.00534698       0.00219420
Ti       3.85964167       4.52797374      14.70847322       0.00034693      -0.00169202       0.00078468
Cu       4.82933766       6.99335101      15.38671255      -0.00208952       0.00024496       0.00110379
Ti       2.40306515       2.19619195      15.48941417      -0.00051748      -0.00041971       0.00168241
Ti       1.33775733       4.78106617      15.89964177       0.00166062       0.00115462       0.00209531
Ti       3.90222633       9.57254673      15.91483900       0.00024197      -0.00056735       0.00239083
Ti       2.19305882       7.40156662      16.66017424      -0.00140871      -0.00152329      -0.00202369
Ti       4.89250042       2.57799839      16.67266333      -0.00099160      -0.00131425      -0.00249613
Ti       4.02858467       5.24304348      17.41281254       0.00085277       0.00099003      -0.00395065
Ti       1.49991278       0.39677729      17.45577152       0.00305374       0.00001466      -0.00175441
Ti       4.87711218       7.93120710      18.07354767       0.00023697      -0.00245458      -0.00061653
Ti       2.29862153       3.09762813      18.13937785      -0.00031501      -0.00219811      -0.00335668
Ti       1.41342754       5.69890773      18.80443242      -0.00097834      -0.00151140      -0.00074882
Ti       3.97165517       0.84953828      18.77630473      -0.00125068      -0.00269852      -0.00284142
Ti       2.36531748       8.28292754      19.44375449       0.00067897      -0.00168733       0.00029190
Ti       4.90006072       3.41915553      19.51068665       0.00251006       0.00013649      -0.00024476
Ti       1.52744025       1.20550439      20.20962407       0.00030218      -0.00258284       0.00156809
Ti       4.05278514       6.10311103      20.17874888       0.00218918      -0.00211782       0.00252164
Ti       4.81261732       8.84964915      20.80485765      -0.00112702       0.00030218       0.00168387
Ti       2.27362003       3.98983040      20.85851229      -0.00308908       0.00129708       0.00192809
Ti       3.87548623       1.87954359      21.68471245       0.00115938       0.00058835       0.00254625
Ti       1.32119723       6.76670059      21.67862304       0.00102512       0.00050988       0.00223647
