64
Lattice="5.088765 0.0 0.0 0.0 9.739025 0.0 0.0 0.0 22.303587" Properties=species:S:1:pos:R:3:forces:R:3 job_name=T2-Cu-Cu-52-d-6.97 GB_type=T2 element=Cu system=Cu-52-d-6.97 distance=6.97 energy=-491.09709253 stress_kbar_3x3="_JSON [[-1.94710958, 8.88789877, 0.12877968], [8.88789878, -19.14070411, 1.31804166], [0.12877968, 1.31804169, -19.41131751]]" pbc="T T T"
Ti       2.58312214       9.39675996      22.06232925      -0.00309909       0.00069396       0.00217003
Ti       0.01176578       4.52007201      22.10282831      -0.00023038      -0.00046033       0.00489905
Ti       1.27109649       1.91236401       0.57334745       0.00015908       0.00165833       0.00371590
Ti       3.81346815       6.79594564       0.56821403       0.00101066      -0.00033404       0.00356988
Ti       2.86766492       4.03613294       1.42903809      -0.00017349       0.00283959       0.00091582
Ti       0.34658761       8.91624622       1.42017962       0.00256639      -0.00051502       0.00031389
Ti       0.98436285       6.05007003       2.08841959      -0.00076373      -0.00030007       0.00093777
Ti       3.53266427       1.17679957       2.07777344      -0.00017849       0.00121183       0.00026988
Ti       0.16531879       3.37121400       2.76701586       0.00291547      -0.00056356       0.00020986
Ti       2.71441478       8.24320634       2.76798064       0.00124734       0.00041969       0.00345807
Ti       1.12133491       0.79534588       3.54497784      -0.00035857       0.00025794      -0.00232445
Ti       3.66391905       5.66420259       3.54573994       0.00020260      -0.00141745      -0.00371627
Ti       2.77198207       3.02008238       4.13349782       0.00134589      -0.00123216      -0.00230965
Ti       0.22535095       7.88884012       4.12977179      -0.00003494       0.00014442      -0.00035271
Ti       3.61908568       0.34112762       4.83756353       0.00047931       0.00002949      -0.00266584
Ti       1.07200197       5.20924031       4.83716470       0.00183326       0.00101225      -0.00128236
Ti       2.75503803       7.42858335       5.60918393       0.00061682       0.00003368       0.00169277
Ti       0.21110524       2.56299800       5.61002938       0.00189443      -0.00200847       0.00159523
Ti       3.59750205       4.74968447       6.30712727      -0.00285379       0.00067638      -0.00063153
Ti       1.05486743       9.61807725       6.30302141      -0.00044422      -0.00008067      -0.00031444
Ti       0.17142588       6.96863649       6.91465937       0.00396100      -0.00018528       0.00259082
Ti       2.71355063       2.10224930       6.91384733       0.00130864      -0.00222300       0.00206511
Ti       1.11040411       4.39228710       7.67782582      -0.00087403      -0.00034815       0.00021721
Ti       3.65035116       9.25545654       7.66972362       0.00187689      -0.00198935      -0.00205423
Ti       0.28548843       1.69725153       8.36705242       0.00233176      -0.00156327       0.00276598
Ti       2.83808572       6.56862032       8.37974826       0.00026430      -0.00295362      -0.00178029
Ti       0.98160182       8.62089950       9.01726357       0.00320375       0.00028979      -0.00009411
Ti       3.53719574       3.75713123       9.01446219       0.00270711       0.00096700      -0.00150273
Ti       2.59437191       0.97240053       9.85990508      -0.00199486      -0.00176447      -0.00001820
Ti       0.05864703       5.84911144       9.88723352      -0.00066933      -0.00115250      -0.00079653
Ti       3.85829425       8.11994571      10.60019045       0.00110514       0.00236530      -0.00247292
Ti       1.31334856       3.25082437      10.58670981       0.00150593       0.00078830      -0.00175742
Ti       0.03386160       0.81682039      11.04117762       0.00264783      -0.00024178       0.00178759
Ti       2.59041434       5.69007315      11.04981812       0.00076525      -0.00233556       0.00184278
Ti       3.87967598       3.41735704      11.76647742      -0.00160952      -0.00081556       0.00064319
Ti       1.32943453       8.27010929      11.76724274      -0.00429872       0.00028522      -0.00030055
Ti       2.26209193       1.31635279      12.60152040      -0.00492148       0.00143972      -0.00046310
Ti       4.80494850       6.20076244      12.65278448      -0.00114979      -0.00228323      -0.00127666
Ti       1.54351005       4.12472264      13.24385854       0.00070333      -0.00439106       0.00073401
Ti       4.07270775       8.96683623      13.27081963       0.00211050      -0.00087349      -0.00061095
Ti       4.90879615       1.91032865      13.95608738      -0.00270020      -0.00282436       0.00234710
Ti       2.37529145       6.78621773      14.01638869      -0.00176388       0.00120967       0.00190392
Ti       1.42259421       9.36731919      14.65913041       0.00087750       0.00174875       0.00134745
Ti       3.97778165       4.48038571      14.68989428      -0.00502297       0.00007781      -0.00125494
Ti       4.88755224       7.13589500      15.37891068      -0.00299434       0.00075068      -0.00200338
Ti       2.30933565       2.23498411      15.31651914       0.00247957       0.00129515      -0.00033464
Ti       1.49767443       4.92355386      16.00345466       0.00237302      -0.00131273      -0.00241952
Ti       4.02681052       0.07307696      16.04515506      -0.00050914      -0.00016043      -0.00185460
Ti       2.19666166       7.65669341      16.79784468       0.00331138      -0.00278203      -0.00329963
Ti       4.88685457       2.73597851      16.78753536      -0.00294575      -0.00328595      -0.00204954
Ti       3.90861677       5.48436500      17.53141460       0.00320470      -0.00058973      -0.00100978
Ti       1.34709217       0.53652106      17.54378834       0.00301983       0.00336685      -0.00361875
Cu       4.82909391       8.06445649      18.07418834      -0.00130733       0.00145227      -0.00026542
Ti       2.39867954       3.12956136      17.98034765      -0.00286801       0.00057829       0.00352090
Ti       1.37057977       5.66498085      18.73321831       0.00058436       0.00228451       0.00012440
Ti       3.87016082       0.79496405      18.74975278       0.00268522       0.00559035       0.00100168
Ti       2.15047020       8.32855994      19.47823070      -0.00049349       0.00535892       0.00158410
Ti       4.70321658       3.55114899      19.45953597       0.00081606       0.00423837      -0.00091961
Ti       1.65303497       1.66695525      20.16014999      -0.00257727      -0.00099501       0.00053176
Ti       4.25676014       6.54054920      20.13955820      -0.00378825      -0.00197035       0.00015133
Ti       0.02216183       9.26946247      20.96037034       0.00074314       0.00131448       0.00198820
Ti       2.56162139       4.44826603      20.99627138      -0.00095364      -0.00052131      -0.00173948
Ti       3.81706223       2.11615821      21.76199048      -0.00392586       0.00049726      -0.00160715
Ti       1.27684138       6.97543695      21.79397213      -0.00335287      -0.00040226      -0.00179430
