64
Lattice="5.088765 0.0 0.0 0.0 9.739025 0.0 0.0 0.0 22.303587" Properties=species:S:1:pos:R:3:forces:R:3 job_name=T2-Cu-Cu-32-d-0.00 GB_type=T2 element=Cu system=Cu-32-d-0.00 distance=0.0 energy=-491.21380854 stress_kbar_3x3="_JSON [[-6.4955857, -0.00743616, 3.35894421], [-0.00743613, -19.68983444, 0.00847267], [3.35894421, 0.00847265, -21.10556059]]" pbc="T T T"
Ti       2.54454740       9.28238606      22.30357382       0.00018925      -0.00184555       0.00076153
Ti       0.00021533       4.40947688      22.30356971       0.00007631       0.00120681       0.00086744
Ti       1.26721739       1.90577820       0.61022305      -0.00023534       0.00143651       0.00087305
Ti       3.81369789       6.77450804       0.60603669      -0.00008422      -0.00269092      -0.00019400
Ti       2.70003987       4.09808244       1.39446109      -0.00164575       0.00177061      -0.00159086
Ti       0.15558912       8.97119730       1.39326420      -0.00018379      -0.00116411       0.00016021
Ti       1.01554933       6.23698383       2.13338757      -0.00049615      -0.00008082      -0.00365549
Ti       3.55940715       1.36862542       2.13564039      -0.00196028       0.00212305      -0.00004620
Ti       0.21217513       3.50840929       2.77816025      -0.00160550       0.00034426      -0.00274285
Ti       2.75775085       8.38239914       2.76639142      -0.00244374       0.00201229      -0.00009444
Ti       1.08528369       0.88341372       3.51540140      -0.00323319       0.00205989       0.00071543
Ti       3.63295561       5.74972411       3.50679792      -0.00294164       0.00092596      -0.00138826
Ti       2.73108504       3.11890859       4.21628158      -0.00202918      -0.00130632      -0.00247072
Ti       0.18534525       7.99751620       4.20807813      -0.00138164       0.00272108       0.00146902
Ti       3.57164844       0.45770031       4.86564243      -0.00358704       0.00144327      -0.00262269
Ti       1.02833189       5.31961797       4.86280748      -0.00374333       0.00171973      -0.00187524
Ti       2.72675914       7.52310725       5.56903207      -0.00059420       0.00098130      -0.00064271
Ti       0.19117521       2.65015236       5.60488894      -0.00160352      -0.00179529      -0.00359186
Ti       3.57135211       4.87400665       6.31873764      -0.00401393       0.00035535      -0.00075762
Ti       1.04315262       0.00595069       6.33591777      -0.00457705      -0.00419908      -0.00148846
Ti       0.17528723       7.06777133       6.98694398       0.00053822       0.00039165       0.00345087
Ti       2.73068300       2.19950305       7.02446336       0.00025053      -0.00317402      -0.00248291
Ti       1.07229546       4.44772879       7.65164336      -0.00574396       0.00377996       0.00204696
Ti       3.63127227       9.31462445       7.61931458      -0.00409576      -0.00399891      -0.00262324
Ti       0.17593341       1.83550939       8.44603492      -0.00020553       0.00095816       0.00326387
Ti       2.72015586       6.73449305       8.39212567      -0.00394424       0.00048247       0.00288035
Ti       0.92677698       8.87384660       9.06233248      -0.00147248      -0.00179555       0.00287949
Ti       3.49061336       3.99318766       9.02946811      -0.00238920       0.00214335       0.00255321
Ti       2.85975595       1.15378805       9.79666376      -0.00043958      -0.00131147       0.00383153
Ti       0.17276229       6.06617884       9.78460271       0.00036624      -0.00178505       0.00408072
Ti       3.79456877       8.19093324      10.59468466      -0.00041487      -0.00471896       0.00659392
Ti       1.27035649       3.28555725      10.62693739      -0.00197097       0.00390202       0.00684041
Cu       0.00002508       0.82622664      11.15168157       0.00006376      -0.00081960       0.00021935
Ti       2.54439024       5.70103182      11.15166429       0.00022497       0.00133817       0.00064250
Ti       3.81854954       3.28554188      11.67628500       0.00182032       0.00363297      -0.00614835
Ti       1.29422361       8.19085588      11.70851588       0.00020418      -0.00489790      -0.00482896
Ti       2.22910284       1.15378562      12.50657710       0.00020156      -0.00246401      -0.00260058
Ti       4.91615282       6.06593623      12.51856488      -0.00028368      -0.00109203      -0.00349220
Ti       1.59833319       3.99304606      13.27385829       0.00250443       0.00199995      -0.00244707
Ti       4.16215922       8.87377929      13.24096154       0.00166913      -0.00184288      -0.00175232
Ti       4.91291368       1.83551644      13.85732844       0.00019360      -0.00045958      -0.00359720
Ti       2.36862375       6.73440316      13.91118210       0.00380491       0.00153753      -0.00261347
Ti       1.45760639       9.31465830      14.68410025       0.00407156      -0.00476095       0.00216221
Ti       4.01656291       4.44767915      14.65174371       0.00608646       0.00442120      -0.00263576
Ti       4.91367013       7.06762397      15.31649027      -0.00067693       0.00157081      -0.00394294
Ti       2.35826168       2.19948216      15.27903775      -0.00043601      -0.00439695       0.00123682
Ti       1.51746955       4.87374654      15.98468320       0.00393543       0.00165858       0.00008682
Ti       4.04574804       0.00581264      15.96757298       0.00461195      -0.00535741       0.00016455
Ti       2.36211985       7.52285915      16.73439092       0.00042277       0.00166825      -0.00054960
Ti       4.89768798       2.65001611      16.69847491       0.00169484      -0.00255938       0.00269353
Ti       4.06059014       5.31940565      17.44071000       0.00381005       0.00333054       0.00056018
Ti       1.51726601       0.45763753      17.43783270       0.00342671      -0.00036969       0.00137806
Ti       4.90349616       7.99734782      18.09549299       0.00124683       0.00289400      -0.00257456
Ti       2.35773052       3.11883812      18.08724899       0.00209301      -0.00161954       0.00182398
Ti       1.45585225       5.74965280      18.79671583       0.00328908       0.00205834       0.00063224
Ti       4.00358643       0.88340354      18.78810743       0.00340507       0.00085936      -0.00131272
Ti       2.33139564       8.38213641      19.53693712       0.00239379       0.00200346      -0.00062015
Ti       4.87694254       3.50811533      19.52514436       0.00187217       0.00034477       0.00316225
Ti       1.52936444       1.36822568      20.16782558       0.00197472       0.00121582       0.00067307
Ti       4.07314018       6.23646905      20.17009262       0.00054377       0.00024607       0.00388814
Ti       4.93297773       8.97050575      20.90982292      -0.00027819      -0.00136804       0.00024329
Ti       2.38852278       4.09731955      20.90849803       0.00139772       0.00147403       0.00308583
Ti       3.82193021       1.90540763      21.69294848       0.00001505       0.00140873       0.00042955
Ti       1.27543720       6.77410263      21.69723522       0.00031248      -0.00254627       0.00103306
