64
Lattice="5.088765 0.0 0.0 0.0 9.739025 0.0 0.0 0.0 22.303587" Properties=species:S:1:pos:R:3:forces:R:3 job_name=T2-Cu-Cu-50-d-6.29 GB_type=T2 element=Cu system=Cu-50-d-6.29 distance=6.29 energy=-490.97810044 stress_kbar_3x3="_JSON [[-4.43016234, -0.39500675, 0.35795074], [-0.39500675, -22.33023089, 0.47918237], [0.35795073, 0.47918238, -21.71281538]]" pbc="T T T"
Ti       2.55238922       9.25479349       0.01827011       0.01125984      -0.00168985       0.00649175
Ti       5.06539667       4.38232328      22.29981147      -0.00209796       0.00039284       0.01751371
Ti       1.27560698       1.89006827       0.61870679       0.00573312       0.01138266       0.00207588
Ti       3.79589580       6.74738820       0.57418158       0.00034144       0.00363869      -0.00454682
Ti       2.69884099       4.09484227       1.39405649      -0.00781559       0.01085758      -0.00656923
Ti       0.12763341       8.96271164       1.34839455      -0.00689090       0.01279259      -0.00777774
Ti       1.02322908       6.22955121       2.08336445       0.00660043       0.00256149       0.00341205
Ti       3.58747787       1.36011607       2.12013183      -0.00288552       0.01261954      -0.00675786
Ti       0.22690668       3.50810016       2.76890525       0.00491901       0.00728459      -0.00920152
Ti       2.76957035       8.37264650       2.75025039       0.00171617       0.00395806      -0.00433590
Ti       1.10764016       0.86633112       3.48623619      -0.00216870       0.00024167       0.00223123
Ti       3.64707598       5.74466390       3.49054971      -0.00678855      -0.00142123      -0.00081926
Ti       2.75444429       3.10756448       4.19617215      -0.00530429       0.00292070      -0.00159527
Ti       0.21123525       7.97813881       4.17748185      -0.00577417       0.00117199       0.00252534
Ti       3.61111420       0.43743879       4.85051224       0.00020625      -0.00358660       0.00316086
Ti       1.06617386       5.31153131       4.84493307      -0.00051244      -0.00052159      -0.00221420
Ti       2.75106424       7.52200941       5.57264382       0.00146621       0.00151707       0.00178207
Ti       0.20774651       2.65108387       5.57565358       0.00126167      -0.00280409       0.00100458
Ti       3.61400916       4.86952589       6.30300410      -0.00354460       0.00168797       0.00235500
Ti       1.06820896       0.00178124       6.29709061      -0.00264849       0.00158696      -0.00183077
Ti       0.21079543       7.06992508       6.95963163      -0.00259003      -0.00127047      -0.00094075
Ti       2.75573609       2.19858580       6.96658867      -0.00364492       0.00073700      -0.00100046
Ti       1.10699308       4.43958803       7.65262801      -0.00289591      -0.00039041       0.00125456
Ti       3.65170979       9.30750311       7.64956372      -0.00026635      -0.00015230      -0.00363704
Ti       0.22456412       1.80957350       8.39630787       0.00002072       0.00460595       0.00015095
Ti       2.77397690       6.67971871       8.39139324       0.00170543      -0.00467931       0.00752481
Ti       1.02734305       8.82173269       9.03519804      -0.00562365      -0.01073220       0.00037140
Ti       3.56410561       3.94907635       9.04564123       0.00000960       0.00052140       0.00328714
Ti       2.69608100       1.21454485       9.77562815      -0.00710454      -0.00521076       0.01022393
Ti       0.15612214       6.07398228       9.77319346      -0.00319034      -0.00950909       0.00542970
Ti       3.82061297       8.28126045      10.55441891       0.00129224      -0.01297935       0.00113613
Ti       1.26156802       3.40979879      10.57327660       0.00204373      -0.00139472       0.00253610
Ti       5.07679564       0.91312807      11.16531465       0.00983526       0.00113519       0.00093773
Ti       2.53799093       5.78036013      11.14774253      -0.00394726      -0.00215664      -0.00996191
Ti       3.79981305       3.43860306      11.80665668       0.00420208       0.00056672      -0.00535082
Ti       1.26908441       8.29479867      11.78193876       0.00208640       0.00036982       0.00239485
Ti       2.34892003       1.25430203      12.54875995      -0.00110960      -0.00051440       0.00138371
Ti       4.88465965       6.11366485      12.56425044       0.00117499       0.00548728      -0.00854940
Ti       1.47641293       3.99312542      13.33374613      -0.00176929      -0.00061592      -0.00774642
Ti       4.04607426       8.83611295      13.30859777       0.00360120       0.00567114      -0.00967531
Ti       4.85698233       1.81317475      13.94209973      -0.00202476       0.00079210      -0.00479286
Ti       2.31688481       6.69120463      13.92802104      -0.00397685       0.00970389      -0.00601064
Ti       1.43608073       9.31063233      14.66012295       0.00087253      -0.00571424      -0.00327410
Ti       3.94186285       4.44854178      14.70093030       0.00320790      -0.00132663       0.00102962
Ti       4.91957330       7.04936936      15.37375992       0.01305896       0.00412801      -0.00344101
Ti       2.34540102       2.18791131      15.34560840      -0.00250531       0.00621096      -0.00196819
Ti       1.53797586       4.87142761      16.06551224       0.00358501      -0.00048133       0.00964533
Ti       4.03396515       9.69510619      16.04738390       0.00517792      -0.00110221      -0.00250038
Ti       2.40135173       7.51535115      16.71298581      -0.01447520      -0.00817356       0.00133049
Ti       4.88837471       2.69053697      16.72935225       0.00835722       0.00199430      -0.00435231
Cu       4.07728521       5.31224273      17.42773596      -0.00911708      -0.00088721       0.00556631
Ti       1.46525380       0.45125923      17.43820590      -0.00081861       0.00077354      -0.00220459
Ti       4.89582342       7.95191372      18.11109128       0.00647911      -0.00327531       0.00140798
Ti       2.40184861       3.12729536      18.14204898      -0.01118084       0.00992189      -0.00658064
Ti       1.51626040       5.75900067      18.76255367       0.00835777       0.00092531      -0.00656827
Ti       4.00803354       0.93498844      18.77672746       0.00361644       0.00057110       0.00645953
Ti       2.34463085       8.40442727      19.51422911      -0.00090300      -0.00716593       0.00278752
Ti       4.91981453       3.53055130      19.49451445       0.01031112      -0.01132363       0.00199269
Ti       1.48267595       1.32536975      20.18604045       0.00077430      -0.00508677       0.00885029
Ti       3.97700530       6.17670187      20.11595962      -0.00246513      -0.00236477       0.00276915
Ti       4.87373095       8.88597474      20.86484915      -0.00643316      -0.00267693       0.00244991
Ti       2.34492556       4.04570815      20.90950208      -0.00214877      -0.01361291       0.00381345
Ti       3.83335761       1.86316680      21.64812921       0.00308106      -0.00336622       0.00620242
Ti       1.26298531       6.71680889      21.60945631       0.00826664      -0.00254343       0.00071551
