64
Lattice="5.088765 0.0 0.0 0.0 9.739025 0.0 0.0 0.0 22.303587" Properties=species:S:1:pos:R:3:forces:R:3 job_name=T2-Cu-Cu-33-d-0.00 GB_type=T2 element=Cu system=Cu-33-d-0.00 distance=0.0 energy=-491.20628675 stress_kbar_3x3="_JSON [[-6.58823221, -0.00518738, 2.28131754], [-0.00518741, -19.67699924, 0.00482552], [2.28131761, 0.00482551, -21.66383287]]" pbc="T T T"
Ti       2.54451258       9.26014265       0.00001936       0.00005369      -0.00343165       0.00051660
Ti       0.00013659       4.39402215      -0.00004513       0.00013408      -0.00010866       0.00029596
Ti       1.27048609       1.88651587       0.61323437      -0.00076475       0.00194708       0.00470663
Ti       3.81289301       6.75580469       0.61722849       0.00091966      -0.00377397       0.00090499
Ti       2.70682041       4.08419229       1.39472697      -0.00004820      -0.00015387       0.00475277
Ti       0.16189154       8.94804813       1.39475089       0.00072584      -0.00054135       0.00500397
Ti       1.02808186       6.22417502       2.13218964       0.00083223      -0.00392282       0.00172753
Ti       3.57416316       1.35405455       2.12982756       0.00074988       0.00001472       0.00600444
Ti       0.22307431       3.50421538       2.76954744       0.00127110      -0.00077152      -0.00131291
Ti       2.76667326       8.36716471       2.78168089       0.00244127      -0.00063754       0.00108256
Ti       1.09797560       0.86991238       3.50369236      -0.00013254      -0.00116048      -0.00180607
Ti       3.64143698       5.74161191       3.51869738       0.00007593      -0.00211760      -0.00515479
Ti       2.74268018       3.11545645       4.20665966       0.00085984      -0.00688303      -0.00687235
Ti       0.19870350       7.97680311       4.21226012       0.00105565      -0.00026000      -0.00369439
Ti       3.59472106       0.44710786       4.86726264       0.00266473      -0.00192709       0.00149527
Ti       1.05194874       5.31997012       4.86926970       0.00544981      -0.00168167      -0.00543923
Ti       2.75394592       7.52116227       5.60472649       0.00234542       0.00690077       0.00224517
Ti       0.20122949       2.65673118       5.56856000       0.00139092      -0.00472546      -0.00204010
Ti       3.60141034       4.87514358       6.33231928      -0.00006390       0.00055172       0.00237702
Ti       1.04417695       0.00057282       6.30367245       0.00276161       0.00037026       0.00167389
Ti       0.21157433       7.06494428       7.02364326       0.00328682       0.00825550       0.00493425
Ti       2.74305454       2.20178371       6.99677630       0.00459992      -0.00468592       0.00895411
Ti       1.09758131       4.43282305       7.64668902      -0.00000401      -0.00468594       0.01221245
Ti       3.62525687       9.30752651       7.66239118      -0.00340876       0.00031977       0.00157983
Ti       0.18696929       1.83664660       8.37687338       0.00181104      -0.00777465      -0.00775900
Ti       2.73618686       6.69608061       8.44862230       0.00219497      -0.00109514       0.00187695
Ti       0.98496950       8.87355634       9.03095406       0.00493865       0.00196457      -0.01289275
Ti       3.54119597       4.01330471       9.08397572       0.00569532      -0.00206033       0.00304284
Ti       2.72817622       1.24093756       9.78203083      -0.00183413       0.00442665      -0.00954315
Ti       0.32466458       6.07761763       9.79386337       0.00024061       0.00565887      -0.00429086
Ti       3.81244397       8.20364820      10.60873256      -0.00325838       0.00153793      -0.00648007
Ti       1.24202895       3.37125083      10.54291876       0.00363573       0.00858996      -0.01349209
Ti       0.00002233       0.87793786      11.15151494      -0.00021140       0.00941903      -0.00003262
Cu       2.54440778       5.72528154      11.15173374       0.00032040       0.01074330       0.00051681
Ti       3.84688752       3.37114625      11.76011908      -0.00392028       0.00923248       0.01319996
Ti       1.27643974       8.20368344      11.69428771       0.00367874       0.00163259       0.00579566
Ti       2.36069116       1.24092104      12.52105526       0.00219600       0.00441413       0.00948527
Ti       4.76432790       6.07753336      12.50921544      -0.00051302       0.00544871       0.00457704
Ti       1.54777505       4.01310869      13.21925880      -0.00593716      -0.00213567      -0.00258298
Ti       4.10393970       8.87348374      13.27219049      -0.00551982       0.00186903       0.01346014
Ti       4.90175701       1.83664975      13.92637708      -0.00150167      -0.00751892       0.00838995
Ti       2.35267897       6.69606785      13.85464809      -0.00165935      -0.00148957      -0.00151391
Ti       1.46371748       9.30750984      14.64095339       0.00331596       0.00042056      -0.00120329
Ti       3.99142586       4.43276525      14.65667969      -0.00023264      -0.00480808      -0.01164097
Ti       4.87725552       7.06487733      15.27986318      -0.00326646       0.00795175      -0.00473758
Ti       2.34581361       2.20180499      15.30675853      -0.00433277      -0.00428844      -0.00899337
Ti       1.48744194       4.87506789      15.97126437      -0.00001517       0.00043769      -0.00280769
Ti       4.04468666       0.00054398      15.99979981      -0.00300708       0.00065800      -0.00194850
Ti       2.33495172       7.52110683      16.69879696      -0.00221204       0.00670334      -0.00312438
Ti       4.88762745       2.65670325      16.73491149      -0.00144009      -0.00446029       0.00135937
Ti       4.03692835       5.31980470      17.43421623      -0.00545879      -0.00183371       0.00456757
Ti       1.49416019       0.44705434      17.43629492      -0.00264502      -0.00167302      -0.00247281
Ti       4.89014554       7.97662717      18.09130244      -0.00126373      -0.00061748       0.00310351
Ti       2.34613842       3.11534155      18.09692724      -0.00100243      -0.00689967       0.00618083
Ti       1.44745307       5.74152238      18.78477905       0.00035555      -0.00218829       0.00489522
Ti       3.99094229       0.86990952      18.79973413       0.00047837      -0.00073489       0.00129911
Ti       2.32225469       8.36700223      19.52174374      -0.00256947      -0.00071175      -0.00096002
Ti       4.86587113       3.50404943      19.53386316      -0.00152779      -0.00051637       0.00135026
Ti       1.51472649       1.35384802      20.17367781      -0.00056233       0.00001822      -0.00583817
Ti       4.06082026       6.22388450      20.17126631      -0.00065171      -0.00378962      -0.00137560
Ti       4.92671932       8.94763539      20.90844558      -0.00080850      -0.00105501      -0.00454650
Ti       2.38184660       4.08381806      20.90846022      -0.00049691      -0.00026038      -0.00431475
Ti       3.81852488       1.88635676      21.69008976       0.00060250       0.00199192      -0.00413049
Ti       1.27612970       6.75566068      21.68607995      -0.00081190      -0.00409874      -0.00056655
