64
Lattice="5.088765 0.0 0.0 0.0 9.739025 0.0 0.0 0.0 22.303587" Properties=species:S:1:pos:R:3:forces:R:3 job_name=T2-Cu-Cu-51-d-6.29 GB_type=T2 element=Cu system=Cu-51-d-6.29 distance=6.29 energy=-491.01550974 stress_kbar_3x3="_JSON [[-3.43214089, -0.00249177, 0.43430692], [-0.00249176, -19.36604534, 5.40069509], [0.43430693, 5.40069511, -18.9505706]]" pbc="T T T"
Ti       2.56141059       9.30049873       0.09082438      -0.00158589       0.00225626       0.00255914
Ti       0.03381618       4.43946989       0.08664958      -0.00276152       0.00193113       0.00502357
Ti       1.29384416       1.99689776       0.53939896      -0.00450175      -0.00166285       0.00076590
Ti       3.85822249       6.87179398       0.58521058       0.00220004       0.00230687       0.00619226
Ti       2.59101322       4.27094822       1.28544377       0.00643845      -0.00050307       0.00814964
Ti       0.05117839       9.15346319       1.31498384       0.00519449      -0.00676943       0.00195231
Ti       0.98166482       6.34047449       2.13410488      -0.00253526       0.00221105       0.00853272
Ti       3.50246818       1.47573008       2.11313099      -0.00532119       0.00094029       0.00024340
Ti       0.26366725       3.53731343       2.75470414      -0.00343604       0.00726097       0.00428222
Ti       2.80774753       8.41089756       2.77465179      -0.00792478      -0.00323333       0.00006084
Ti       1.08277444       0.85964126       3.49830595       0.00599741       0.00035628      -0.00379787
Ti       3.63447455       5.72019377       3.48994059       0.00233316      -0.00188086      -0.00177844
Ti       2.72183672       3.12496374       4.20923757       0.00016581      -0.00161901      -0.00868095
Ti       0.17429068       7.99406230       4.21904754       0.00530441      -0.01009503      -0.01084967
Ti       3.58488899       0.45250681       4.83647733      -0.00322010       0.00441955      -0.00111959
Ti       1.04294602       5.32054122       4.83627906      -0.00463598       0.00084241      -0.00641620
Ti       2.72134300       7.52817112       5.57163401       0.00179397      -0.00122514      -0.00136673
Ti       0.17478233       2.66243863       5.57177339       0.00400672       0.00331259      -0.00133645
Ti       3.58485914       4.87780406       6.30787114       0.00282187      -0.00229313      -0.00262669
Ti       1.04202658       0.00518796       6.31625581       0.00015048      -0.00309483      -0.00276347
Ti       0.17940493       7.06385816       6.94755470      -0.00001574      -0.00215564       0.00297602
Ti       2.72290721       2.19603269       6.94096880       0.00376870       0.00390155       0.00172877
Ti       1.08701617       4.46223086       7.64324346       0.00274339       0.00353447       0.00330785
Ti       3.63039232       9.33105544       7.64757341       0.00601512       0.00181273       0.00306325
Ti       0.25190534       1.79115285       8.39152715      -0.00209273      -0.00047000       0.00015655
Ti       2.79186768       6.66079669       8.39492834      -0.00140954      -0.00334407       0.00149630
Ti       0.95455151       8.72846390       9.02771432      -0.00377088      -0.00352789       0.00688878
Ti       3.50657694       3.86549234       9.01292985      -0.00537719      -0.00261175      -0.00265577
Ti       2.60785569       1.04929693       9.83369710       0.00715821      -0.00230210       0.00056464
Ti       0.05993819       5.92757713       9.83714055       0.00987843      -0.00379578      -0.00022047
Ti       3.83476622       8.18015547      10.60661527       0.00188081      -0.00171964      -0.00128356
Ti       1.30514133       3.31127575      10.58801728       0.00792749      -0.00110587      -0.00189585
Ti       0.01627500       0.86852594      11.07091061      -0.00441924      -0.00309861      -0.00215973
Ti       2.56221068       5.73905368      11.08246920      -0.00773949      -0.00194044      -0.00377694
Ti       3.85606532       3.43425918      11.76093108       0.00114184      -0.00590913       0.00293552
Ti       1.29488196       8.31639072      11.79072015       0.00105282      -0.00727337      -0.00008618
Ti       2.29112048       1.29619124      12.59741556       0.00536744      -0.00121779      -0.00090646
Ti       4.83779443       6.17633596      12.59133211       0.00793298      -0.00391635       0.00278796
Ti       1.53423247       4.04590031      13.28574718       0.00337968      -0.00402201       0.00069845
Ti       4.04533436       8.93030478      13.31456468       0.00373721       0.00026519       0.00089095
Ti       4.90899254       1.86086678      13.93019620       0.00062486      -0.00480282      -0.00327683
Ti       2.36435976       6.72235729      13.95209542      -0.00341233      -0.00499867       0.00250391
Ti       1.41645311       9.32319810      14.69819700       0.00014694       0.00166357       0.00497959
Ti       3.99946368       4.44257763      14.67017545      -0.00174249       0.00008568      -0.00034556
Ti       4.91067017       7.06278566      15.32876288      -0.00080291       0.00194735      -0.00230074
Ti       2.39068537       2.18715309      15.34800316      -0.00184395      -0.00177503       0.00509374
Ti       1.51468638       4.80847598      16.05192564       0.00350771       0.00403473      -0.00468418
Ti       4.10688929       9.72989630      16.06302012       0.00115587       0.00488830       0.00570390
Ti       2.35369677       7.55090201      16.72747793      -0.00058171       0.00869851       0.00318360
Ti       4.95726858       2.63874931      16.71055938      -0.00590699      -0.00902854       0.00276884
Ti       4.03250898       5.31793538      17.44437586      -0.00453539       0.00052839      -0.00181285
Cu       1.55261722       0.42162077      17.43434032       0.00299081      -0.01215747       0.00068523
Ti       4.97282500       7.96861318      18.15697911      -0.00580839       0.01797233      -0.00479390
Ti       2.37647173       3.05612581      18.11917290      -0.00000969      -0.00188748      -0.00688242
Ti       1.47952642       5.76356823      18.77696178       0.00059202       0.00178603       0.00014010
Ti       4.09205544       0.86129313      18.75513530      -0.00468964       0.00460432      -0.00881942
Ti       2.44326120       8.34340452      19.46652939      -0.00104500       0.00743570      -0.00350621
Ti       4.93037281       3.47188644      19.50445664      -0.00313622      -0.00317907      -0.00205673
Ti       1.48170891       1.21330422      20.14908644      -0.00682260      -0.00098177      -0.00610292
Ti       4.06711653       6.09668780      20.20973988      -0.00607820       0.00673641       0.00089176
Ti       4.82994597       8.84795881      20.86091732      -0.00086213       0.00998192       0.00306390
Ti       2.28909747       3.96202082      20.83600548       0.00026279       0.00676413       0.00192269
Ti       3.86031104       1.83006928      21.64160503       0.00103536       0.00248454      -0.00252533
Ti       1.34509443       6.73186093      21.66641509      -0.00068229       0.00463471       0.00463380
