64
Lattice="5.088765 0.0 0.0 0.0 9.739025 0.0 0.0 0.0 22.303587" Properties=species:S:1:pos:R:3:forces:R:3 job_name=T2-Cu-Cu-41-d-2.77 GB_type=T2 element=Cu system=Cu-41-d-2.77 distance=2.77 energy=-491.08762139 stress_kbar_3x3="_JSON [[-4.45751017, -0.14716038, 0.48196923], [-0.14716041, -22.51351273, -0.43791779], [0.48196922, -0.43791781, -21.94134929]]" pbc="T T T"
Ti       2.54916609       9.25328477      22.28256426      -0.00063943       0.00206032      -0.00077676
Ti       0.00777736       4.38182599      22.29553819       0.00150667       0.00355777      -0.00222012
Ti       1.27438262       1.87632809       0.61045845      -0.00229046       0.00248555      -0.00890226
Ti       3.82291672       6.74961907       0.61015309       0.00053416       0.00127804       0.00477186
Ti       2.71264709       4.07407855       1.38290106       0.00402719       0.00541884      -0.00248514
Ti       0.17262589       8.94375854       1.38874793       0.00434002      -0.00314085      -0.00016793
Ti       1.04183873       6.22065067       2.12023376      -0.00055875       0.00203073       0.00380945
Ti       3.58183658       1.34921672       2.11451387      -0.00025766      -0.00397158      -0.00235233
Ti       0.22378459       3.50173753       2.76676976       0.00278439       0.00253702      -0.00304949
Ti       2.76975154       8.37416353       2.76513746      -0.00062769      -0.00476648       0.00117527
Ti       1.10223421       0.87462866       3.50891237       0.00507704      -0.00337414       0.00782934
Ti       3.64827324       5.74597428       3.49887790       0.00340385       0.00371310       0.00510096
Ti       2.75642090       3.10731703       4.18389598       0.00137688       0.00208080       0.00365126
Ti       0.21530789       7.97522570       4.20011859       0.00241606      -0.00145300       0.00143861
Ti       3.61325744       0.43696576       4.85793614       0.00209598      -0.00298147       0.00111667
Ti       1.07145144       5.31318144       4.86922558       0.00340372       0.00340564      -0.00155679
Ti       2.76057775       7.52448450       5.59401511       0.00030155       0.00049181      -0.00211883
Ti       0.21160807       2.65989094       5.59299766      -0.00002053       0.00181776       0.00351280
Ti       3.60928030       4.86771951       6.28786555       0.00115856       0.00033746      -0.00326571
Ti       1.06367412       9.73403900       6.31101202       0.00152605      -0.00095217       0.00053449
Ti       0.21231518       7.06421556       7.00784624       0.00117113      -0.00099935      -0.00753924
Ti       2.75300977       2.20001774       6.96679606       0.00205306       0.00007933      -0.00323027
Ti       1.10594448       4.44525720       7.68725723       0.00221571      -0.00115155      -0.00634024
Ti       3.64939848       9.30336807       7.66716312       0.00100588       0.00203276      -0.00476555
Ti       0.22532785       1.80568395       8.40633548       0.00195949       0.00067561      -0.00097492
Ti       2.78929864       6.65257603       8.40365236      -0.00078806      -0.00017590      -0.00461048
Ti       1.06277090       8.81868739       9.06657073      -0.00338771       0.00126089       0.00050217
Ti       3.61060280       3.97007601       9.02121895       0.00311711      -0.00258906      -0.00211358
Ti       2.70389999       1.24655241       9.75808187       0.00077167       0.00116260      -0.00237224
Ti       0.19293290       6.11880043       9.90314793      -0.00207269      -0.00122280       0.00356282
Ti       3.79937025       8.33924018      10.50062882      -0.00129386       0.00233441       0.00380120
Ti       1.28896484       3.45256167      10.54594843      -0.00173289      -0.00290552       0.00390464
Ti       0.01098960       0.92958879      11.15728243      -0.00108466      -0.00323435       0.00261354
Ti       2.62050108       5.81073536      11.16631077       0.00515777      -0.00526007       0.00081136
Ti       3.82947873       3.43441191      11.75544411       0.00008470      -0.00129705      -0.00438392
Ti       1.26734226       8.26983467      11.84367150      -0.00050013       0.00105508      -0.00282032
Ti       2.39122711       1.18682557      12.56285372      -0.00039297      -0.00077603      -0.00412102
Ti       4.86510782       6.10872573      12.66476203      -0.00487587      -0.00225714       0.00494469
Ti       1.54771089       3.99527509      13.24654577       0.00538048      -0.00059440      -0.00316449
Ti       3.94795972       8.84093081      13.25819753      -0.00608484       0.00185540       0.00169835
Ti       4.90263865       1.84410463      13.89401450      -0.00024457       0.00568674      -0.00103277
Cu       2.28298318       6.63302095      13.93959536      -0.00021039       0.00024356       0.00046733
Ti       1.39991484       9.23468259      14.59461899      -0.00406277       0.00443076       0.00284427
Ti       3.92851631       4.43737166      14.71528237       0.00094744       0.00167361       0.00703955
Ti       4.77117952       7.07738362      15.30523803      -0.00619095      -0.00078083       0.00384181
Ti       2.31327226       2.20729168      15.29460761       0.00077606      -0.00080522       0.00245548
Ti       1.42000420       4.88521913      15.94953207      -0.00821788      -0.00234314       0.00102133
Ti       4.02376981       0.02126822      15.97636138       0.00110470       0.00325074       0.00296602
Ti       2.36919604       7.50523849      16.69374586       0.00603273       0.00134365      -0.00012689
Ti       4.88814048       2.64116335      16.73374532      -0.00429423      -0.00482059      -0.00099345
Ti       4.03676177       5.29153046      17.44840515       0.00530154      -0.00421797       0.00289076
Ti       1.49221008       0.43068927      17.41846016      -0.00810766      -0.00022620      -0.00228606
Ti       4.88435586       7.96127211      18.05363751      -0.00283771      -0.00119191      -0.00621267
Ti       2.33328710       3.11413122      18.06504640       0.00279949      -0.00318223      -0.00457448
Ti       1.44702860       5.75052912      18.79274340      -0.00541058      -0.00053033      -0.00689659
Ti       3.98645555       0.85962843      18.80235208       0.00178640      -0.00034447       0.00076605
Ti       2.32327564       8.37615089      19.51011168      -0.00347091       0.00380955       0.00346114
Ti       4.86749337       3.49794249      19.53372347      -0.00379752      -0.00183887      -0.00051401
Ti       1.50597201       1.35722797      20.15388236       0.00029275      -0.00264752       0.00145453
Ti       4.05775226       6.22849589      20.17378298       0.00024067       0.00078627       0.00012024
Ti       4.94011489       8.93161722      20.89441645      -0.00111594       0.00234887       0.00073815
Ti       2.39030790       4.07327405      20.88857296      -0.00163398      -0.00267050       0.00274174
Ti       3.82153277       1.87237952      21.67312672      -0.00093101       0.00142520       0.00073043
Ti       1.28644331       6.74159191      21.67464125       0.00098339       0.00203281       0.00765025
