64
Lattice="5.088765 0.0 0.0 0.0 9.739025 0.0 0.0 0.0 22.303587" Properties=species:S:1:pos:R:3:forces:R:3 job_name=T2-Cu-Cu-35-d-0.63 GB_type=T2 element=Cu system=Cu-35-d-0.63 distance=0.63 energy=-491.18871286 stress_kbar_3x3="_JSON [[-5.59817254, -1.48957323, -1.26061043], [-1.48957327, -20.67069909, -0.39494309], [-1.26061042, -0.3949431, -20.99533444]]" pbc="T T T"
Ti       2.53550366       9.26449971      22.29347433      -0.00134254      -0.00237338      -0.00136721
Ti       5.08743936       4.39936851      22.29367811      -0.00041926      -0.00179539       0.00027804
Ti       1.26879647       1.88126830       0.61567771      -0.00608713      -0.00191281       0.00300521
Ti       3.81072634       6.75621872       0.61182768      -0.00389654       0.00230029       0.00323016
Ti       2.72517184       4.07079308       1.38871948       0.00291512      -0.00564283       0.00556305
Ti       0.18100471       8.94027318       1.40053806       0.00337852      -0.00195861       0.00029713
Ti       1.03828933       6.21542987       2.11827276       0.00389625      -0.00372572      -0.00077048
Ti       3.58047741       1.33289470       2.12914588       0.00327198      -0.00340199      -0.00078793
Ti       0.23053925       3.48678600       2.76914563      -0.00030308      -0.00532950      -0.00529903
Ti       2.77468359       8.36020714       2.77566016      -0.00014988      -0.00241571      -0.00138870
Ti       1.11117037       0.85465864       3.53555722      -0.00270724      -0.00124682      -0.00171820
Ti       3.65127765       5.73497296       3.50055101      -0.00364636       0.00009225      -0.00062759
Ti       2.76183955       3.09353694       4.18626014       0.00383994       0.00153441      -0.00001366
Ti       0.21725017       7.96257253       4.20328482       0.00225602       0.00286625       0.00092223
Ti       3.63215294       0.42268599       4.89026684       0.00225443       0.00046382      -0.00203946
Ti       1.08121366       5.30437601       4.86212695       0.00292580       0.00302843       0.00261029
Ti       2.76736940       7.52891410       5.58126612       0.00007278       0.00216641       0.00121559
Ti       0.22723020       2.65269013       5.58937289       0.00068005      -0.00019676       0.00019621
Ti       3.60912973       4.86346291       6.27029331       0.00038070       0.00136204       0.00256920
Ti       1.05963409       9.71059946       6.34602614      -0.00001536       0.00389428       0.00144145
Ti       0.22221126       7.06569479       7.00617338       0.00097991       0.00414850       0.00323858
Ti       2.78382618       2.17961549       6.96226827       0.00263016       0.00193443      -0.00209851
Ti       1.10351215       4.41042764       7.67640390       0.00239378       0.00254584       0.00431429
Ti       3.62694624       9.25951357       7.73664645       0.00318691       0.00103779       0.00074688
Ti       0.22554289       1.75064301       8.40041798      -0.00328507       0.00710251      -0.00126371
Ti       2.75383351       6.63970385       8.37462936       0.00086017       0.00389942      -0.00062338
Ti       1.09390768       8.82120384       9.16310419      -0.00207575       0.00615513      -0.00686664
Ti       3.62684586       3.97939189       9.01114478      -0.00284459       0.00985843       0.00062180
Ti       2.78572353       1.34250973       9.72792871       0.00079806       0.00677917      -0.00238354
Ti       0.14479234       6.12968154       9.78387104      -0.00066529       0.00336304       0.00116263
Ti       3.60671520       8.38961711      10.54545740      -0.00311498       0.00200103      -0.00199914
Ti       1.22903681       3.47861542      10.50098308       0.00377267       0.00570023       0.00023929
Ti       5.06684508       0.93805624      11.28964941       0.00503683      -0.01017863      -0.00454137
Ti       2.61075696       5.82931966      11.12410192       0.00559897      -0.00877083       0.00152755
Ti       3.78343905       3.40459080      11.75705530      -0.01679607       0.00482743      -0.00394482
Cu       1.26146179       8.27924328      11.79267399      -0.00979035      -0.01392562       0.00243409
Ti       2.48008749       1.05485076      12.44632667       0.00584830      -0.00392630      -0.00013226
Ti       4.93209859       6.07793757      12.58532430      -0.01108461      -0.00350840       0.00203820
Ti       1.51582686       4.00664652      13.22211049       0.01200868      -0.01577002      -0.00162380
Ti       4.14719152       8.79498373      13.28508281       0.00312118      -0.01274889       0.00065602
Ti       4.84604906       1.80818720      13.91674344      -0.00124402      -0.00159926       0.00392592
Ti       2.32843646       6.70354507      13.84882370       0.00012795      -0.00482736      -0.00015887
Ti       1.41931202       9.32762979      14.59904849      -0.00397771      -0.00183950      -0.00015875
Ti       3.95529622       4.44041186      14.65319034      -0.00550080       0.00428805       0.00345114
Ti       4.85963400       7.05748842      15.34440368      -0.00150469      -0.00339718       0.00081739
Ti       2.32178556       2.19509896      15.31237243      -0.00265166      -0.00184634      -0.00180297
Ti       1.46945121       4.87805930      15.95579613       0.00163453      -0.00066921       0.00442080
Ti       4.02107985       0.00435512      15.97950913       0.00323882      -0.00431559      -0.00485930
Ti       2.32699232       7.53397268      16.70321722       0.00214631      -0.00322717      -0.00284816
Ti       4.87137755       2.65290414      16.72631396       0.00187852      -0.00224605       0.00260306
Ti       4.01194423       5.31022047      17.44507126      -0.00086567       0.00001760      -0.00219625
Ti       1.47069729       0.44629337      17.42733740       0.00057132       0.00308445      -0.00037730
Ti       4.86584730       7.98527646      18.10855748      -0.00114158       0.00132945      -0.00168565
Ti       2.32392402       3.11620601      18.08645048      -0.00321907       0.00157155      -0.00391846
Ti       1.42738429       5.74453967      18.77215047       0.00167503      -0.00021881      -0.00058435
Ti       3.97089389       0.87075423      18.78881271       0.00198290      -0.00077847      -0.00011811
Ti       2.30584709       8.37293477      19.52624142      -0.00317146       0.00147330       0.00200998
Ti       4.85325874       3.50111664      19.53372647      -0.00022953      -0.00228028      -0.00074763
Ti       1.50649356       1.35994184      20.16557622      -0.00336780       0.00355270      -0.00311320
Ti       4.05441822       6.22814492      20.17238629       0.00099962       0.00779766      -0.00103795
Ti       4.91812423       8.96343670      20.91628532       0.00289087       0.00974165       0.00309601
Ti       2.37923179       4.10022832      20.90246263       0.00083383       0.00580485       0.00164670
Ti       3.80801199       1.89547169      21.69082690       0.00569844       0.00353429       0.00157586
Ti       1.26611071       6.76598678      21.68343160      -0.00068725       0.00681679       0.00124163
