64
Lattice="5.088765 0.0 0.0 0.0 9.739025 0.0 0.0 0.0 22.303587" Properties=species:S:1:pos:R:3:forces:R:3 job_name=T2-V-V-46-d-4.86 GB_type=T2 element=V system=V-46-d-4.86 distance=4.86 energy=-495.86764696 stress_kbar_3x3="_JSON [[-3.26312023, -0.58999096, 0.23144022], [-0.58999099, -20.12189074, -0.80295135], [0.23144021, -0.80295138, -20.46544745]]" pbc="T T T"
Ti       2.54162662       9.25103284      22.29730490       0.00088005       0.00929969       0.00288436
Ti       0.00238276       4.38400623      22.30079441       0.00116320       0.01173404       0.00181128
Ti       1.27108186       1.87688160       0.60514696       0.00774054      -0.00174807       0.00200839
Ti       3.80789925       6.74788084       0.59450743       0.00837251      -0.00171589      -0.00160786
Ti       2.70808053       4.07541012       1.37813568      -0.00055253       0.00260162       0.00203865
Ti       0.15776678       8.94620872       1.38025223       0.00002187       0.00229069      -0.00102570
Ti       1.03691902       6.22227541       2.10872174      -0.00437785       0.00038601       0.00128067
Ti       3.58223934       1.35147416       2.11699480      -0.00567307       0.00283498      -0.00226166
Ti       0.23026176       3.50012846       2.75832749       0.00070353       0.00142050       0.00203424
Ti       2.77184668       8.37044549       2.75772368      -0.00058755       0.00172155       0.00255467
Ti       1.10801250       0.87091012       3.49845293       0.00438335       0.00033729       0.00107461
Ti       3.65252200       5.74150838       3.49242124       0.00235763      -0.00032021       0.00289735
Ti       2.75873369       3.10920576       4.19023887      -0.00402293      -0.00021238       0.00124506
Ti       0.21469879       7.97756795       4.18851631      -0.00239722      -0.00190497       0.00168910
Ti       3.61228243       0.43785162       4.85577255      -0.00242295      -0.00064604       0.00080906
Ti       1.06715905       5.30901141       4.85321864      -0.00124180       0.00019457       0.00075675
Ti       2.75719704       7.52334976       5.57552353      -0.00060374      -0.00020457      -0.00133934
Ti       0.21232884       2.65316308       5.57538038       0.00090011       0.00201534      -0.00211851
Ti       3.61251986       4.86880445       6.30313057      -0.00200310       0.00236546      -0.00129913
Ti       1.06805066       0.00237354       6.30371259      -0.00138062       0.00287342      -0.00121773
Ti       0.21777076       7.06783541       6.96854359      -0.00043730       0.00270904      -0.00081354
Ti       2.76264438       2.19890879       6.97264298      -0.00357692       0.00142546      -0.00095645
Ti       1.10549705       4.42799129       7.65747194       0.00321397       0.00081649      -0.00116832
Ti       3.65364177       9.30122210       7.65892976       0.00254645      -0.00001497      -0.00236929
Ti       0.21717529       1.81335250       8.40367690      -0.00177959       0.00234100      -0.00202720
Ti       2.76311653       6.67342540       8.39271946      -0.00435969       0.00387419      -0.00144836
Ti       1.04388931       8.83719262       9.04143782      -0.00619175       0.00874434       0.00017065
Ti       3.57851566       3.96752406       9.05572976      -0.00377842       0.00915913       0.00031841
Ti       2.70952716       1.24711200       9.76437164      -0.00131733       0.00746008      -0.00718485
Ti       0.18009537       6.11638654       9.75753899       0.00800925       0.00921717      -0.00343233
Ti       3.81001426       8.30441591      10.54280634       0.00363556       0.00397570       0.00094633
Ti       1.25724490       3.43950279      10.56771470       0.00038721       0.00755670       0.00441791
Ti       5.07438898       0.92729377      11.18049728       0.00708822      -0.00752491       0.00775985
Ti       2.52719513       5.79162961      11.19406893      -0.00880508      -0.01294917       0.00274585
Ti       3.79913151       3.43787496      11.80431162      -0.00603848      -0.00621788       0.00209023
Ti       1.26764706       8.29323477      11.77798839      -0.01225717      -0.00552182       0.00041249
Ti       2.38808022       1.22270978      12.54557708       0.00071261      -0.01542683      -0.00442356
Ti       4.93975699       6.08312773      12.53274311       0.00528075      -0.01327791      -0.00450540
Ti       1.48425500       3.95537219      13.34517380       0.00186651      -0.00791540      -0.00353167
Ti       4.05298249       8.81743899      13.28628173       0.01342311      -0.00976276       0.00069914
Ti       4.83476320       1.81086215      13.91523281      -0.00548203      -0.00043293      -0.00018687
Ti       2.30024530       6.66547683      13.94797129      -0.00332539      -0.00050967      -0.00234423
Ti       1.43179671       9.33053220      14.65950582      -0.00410218       0.00430871       0.00430842
Ti       3.95861613       4.47176409      14.69009299      -0.00137815      -0.00014866      -0.00316449
Ti       4.94756991       7.05752196      15.36172768       0.00411224       0.00612362       0.00261888
Ti       2.35640052       2.23014766      15.38461853       0.00684898      -0.00165968       0.00508968
V        1.46244587       4.87129890      15.98747343      -0.00342468      -0.00150512       0.00117635
Ti       4.01493970       9.73529347      16.00190186      -0.00054411      -0.00204432       0.00008840
Ti       2.35156781       7.47887518      16.68031202       0.00219141       0.00013274      -0.00276789
Ti       4.95370572       2.66468485      16.70206412       0.00005357      -0.00405997      -0.00095409
Ti       4.03304250       5.27846415      17.41785547       0.00479941      -0.00062939       0.00386709
Ti       1.48412278       0.41450418      17.45030727      -0.00037450      -0.00437015      -0.00149299
Ti       4.85759808       7.97743833      18.11902129       0.00070410       0.00010198      -0.00270241
Ti       2.32224659       3.11725603      18.06995558      -0.00044027      -0.00250289       0.00140703
Ti       1.43058803       5.73174253      18.73326132      -0.00563785      -0.00045633       0.00017846
Ti       3.97615607       0.88497267      18.79083284       0.00124814       0.00374273      -0.00076594
Ti       2.33010274       8.35804856      19.53383010      -0.00008514      -0.00077576      -0.00190677
Ti       4.86728501       3.50806110      19.54349700      -0.00013412      -0.00088616       0.00004544
Ti       1.50714633       1.35176108      20.16665847       0.00332075       0.00078208      -0.00308498
Ti       4.04620719       6.20628063      20.15162060       0.00852480      -0.00108843       0.00270791
Ti       4.91760994       8.94364346      20.89511891       0.00095286      -0.00219089      -0.00176032
Ti       2.37696610       4.07975751      20.88328366       0.00080952       0.00269554      -0.00251681
Ti       3.81369827       1.87977407      21.68114831      -0.00283739      -0.00328558       0.00312002
Ti       1.26333749       6.73945701      21.65943976      -0.00468136      -0.00333219      -0.00087401
