64
Lattice="5.088765 0.0 0.0 0.0 9.739025 0.0 0.0 0.0 22.303587" Properties=species:S:1:pos:R:3:forces:R:3 job_name=T2-V-V-53-d-6.97 GB_type=T2 element=V system=V-53-d-6.97 distance=6.97 energy=-495.87342805 stress_kbar_3x3="_JSON [[-3.09901338, 0.49648935, -0.76711652], [0.49648938, -20.15464001, 0.20440606], [-0.76711655, 0.20440605, -20.40722792]]" pbc="T T T"
Ti       2.53292375       9.26665995      22.28848917       0.00206486       0.00193845      -0.00471869
Ti       0.00589356       4.38931186      22.26642933      -0.00461792       0.00389574       0.00207705
Ti       1.26209299       1.88716296       0.58651579       0.00516326       0.00124266      -0.00648001
Ti       3.82281405       6.75338481       0.60035168       0.00123052       0.00026061      -0.00965816
Ti       2.71144222       4.07438015       1.36127096       0.00583856      -0.00192560      -0.00270778
Ti       0.16444959       8.95045689       1.38961968       0.00125440       0.00058246      -0.00625106
Ti       1.04294234       6.21825668       2.11557981      -0.00674874       0.00157434      -0.00788471
Ti       3.57148978       1.35105809       2.11056910      -0.00831815       0.00142624      -0.01264868
Ti       0.22292996       3.49986279       2.74282400      -0.00171548       0.00142811      -0.00430164
Ti       2.76560566       8.36972877       2.75581109       0.00017249      -0.00150188      -0.00520116
Ti       1.10654138       0.87839980       3.49554142      -0.00392879       0.00211002       0.00669189
Ti       3.65502166       5.74225384       3.49070269      -0.00291478      -0.00027157       0.00478509
Ti       2.75762258       3.11284083       4.17971398       0.00309218       0.00239220       0.00575505
Ti       0.21299504       7.98093524       4.18492116       0.00293772      -0.00338152       0.00587470
Ti       3.60928138       0.43932263       4.84875875       0.00363221       0.00281138       0.00399095
Ti       1.06647662       5.30766577       4.85073828       0.00041567      -0.00128310       0.00105655
Ti       2.75495193       7.52460795       5.57289533      -0.00330861      -0.00352229       0.00127529
Ti       0.21063217       2.65496296       5.57405086      -0.00609662       0.00153638       0.00157315
Ti       3.61250751       4.86994694       6.29491456       0.00379036      -0.00328832      -0.00322105
Ti       1.06625845       0.00120269       6.29610842       0.00352140       0.00108051      -0.00484926
Ti       0.21513446       7.06917694       6.96287592       0.00131130      -0.00261675      -0.01016176
Ti       2.76100463       2.19827107       6.96449798       0.00013803       0.00086233      -0.00539883
Ti       1.10732532       4.43550388       7.65212287      -0.00070081      -0.00351224      -0.00904065
Ti       3.65237311       9.30547552       7.65151186      -0.00107388       0.00520539      -0.00313456
Ti       0.23137811       1.80385129       8.39566796      -0.00066344      -0.00082433       0.00398936
Ti       2.77448522       6.67232176       8.38917082      -0.00134495      -0.00092524       0.00261119
Ti       1.04448547       8.82258083       9.03242282       0.00091320       0.00017429       0.00647104
Ti       3.58401575       3.95393519       9.03647483      -0.00017681      -0.00577660       0.00406543
Ti       2.71433833       1.22700736       9.77860106      -0.00213184      -0.00410841       0.01085709
Ti       0.16802356       6.09371080       9.76901844       0.00095272       0.00044129       0.00303837
Ti       3.82309244       8.29789785      10.53710067       0.00204688      -0.00190509       0.00760960
Ti       1.27728849       3.42661637      10.54464521       0.00379870      -0.00454734       0.00488535
Ti       0.01428983       0.92511470      11.16620232       0.00412894      -0.00231990      -0.00184635
Ti       2.55021461       5.79263791      11.16257294      -0.00015296       0.00086557       0.00106606
Ti       3.82672631       3.43403826      11.78421001      -0.00068107       0.00092203      -0.00436002
Ti       1.28349018       8.30645949      11.77726085       0.00131725      -0.00015441      -0.00208119
Ti       2.38514860       1.25408077      12.57800232      -0.00087073       0.00316573      -0.01110080
Ti       4.92861700       6.11398609      12.55306054      -0.00726294       0.00278262       0.00044266
Ti       1.49310624       3.94974142      13.29856052       0.00345380       0.00413157      -0.00764435
Ti       4.04115234       8.83011319      13.28189707      -0.00007173      -0.00531932      -0.00569674
Ti       4.87430034       1.80437660      13.95112021       0.00167715      -0.00423398      -0.00509565
Ti       2.32491808       6.66267796      13.93051694       0.00850284       0.00174794      -0.00163786
Ti       1.43160203       9.30053563      14.64696211       0.00234493      -0.00482988      -0.00015121
Ti       3.98213931       4.41764314      14.63999478      -0.00490907      -0.00155388       0.00862190
Ti       4.87151441       7.05533463      15.35084722      -0.00227007      -0.00007582       0.00197689
Ti       2.34125667       2.20030266      15.40786691      -0.00381481      -0.00449907       0.00368783
Ti       1.49858534       4.86250793      16.04909976       0.00453112      -0.00050982       0.00010027
Ti       4.04482176       0.00252692      16.00628739      -0.00353184      -0.00131066       0.00849974
Ti       2.32960636       7.55114315      16.73691118       0.00589904      -0.00763644       0.00062687
Ti       4.88473054       2.68809093      16.77220407       0.01146955       0.00780746       0.00779778
Ti       3.94000516       5.29246404      17.47568100      -0.00666934       0.00039432      -0.00317250
Ti       1.43920818       0.46877360      17.48599508      -0.00363339       0.00260618       0.00319263
Ti       4.89060389       7.96453218      18.11911934      -0.00208134      -0.00159109      -0.00946147
V        2.38076991       3.09794684      18.10561743       0.00204587      -0.00240402      -0.00901367
Ti       1.42094360       5.67778938      18.74515222       0.00038061      -0.00763890      -0.00948726
Ti       3.91409076       0.86264767      18.76573314      -0.00078375      -0.00219430      -0.00959093
Ti       2.30093264       8.33830127      19.53197363      -0.00124769       0.00440353       0.00475704
Ti       4.84685354       3.45024715      19.50724844      -0.00647778      -0.00461404      -0.00335378
Ti       1.52718062       1.37295137      20.13674191       0.01472933       0.00077920       0.00694231
Ti       4.08560378       6.21547193      20.18386807       0.00484159       0.00504828       0.00314401
Ti       4.91843105       8.96659146      20.91196062      -0.00127798       0.00508558       0.01382746
Ti       2.39794609       4.09835538      20.85779495      -0.00039167       0.00792852       0.01580367
Ti       3.80076757       1.89408913      21.68656402      -0.01141421       0.00411041       0.00884533
Ti       1.27819801       6.76141145      21.68429035      -0.00631330       0.00953449       0.01341217
