64
Lattice="5.088765 0.0 0.0 0.0 9.739025 0.0 0.0 0.0 22.303587" Properties=species:S:1:pos:R:3:forces:R:3 job_name=T2-V-V-45-d-4.19 GB_type=T2 element=V system=V-45-d-4.19 distance=4.19 energy=-495.87226886 stress_kbar_3x3="_JSON [[-3.00215742, -0.40203193, 0.72416961], [-0.40203192, -20.17971226, 0.14482547], [0.72416963, 0.1448255, -20.47588601]]" pbc="T T T"
Ti       2.54706577       9.25385545      22.28663228      -0.00101129       0.00387239      -0.00299557
Ti       0.01658477       4.38317260      22.28115484      -0.00136174      -0.00217105       0.00380560
Ti       1.27800931       1.88175175       0.60050637       0.00442803      -0.00046944      -0.00726969
Ti       3.82547188       6.75111373       0.61180914       0.00274189      -0.00360439      -0.00724849
Ti       2.71650854       4.08010695       1.36850174       0.00022353      -0.00304068      -0.00842641
Ti       0.17102950       8.95188187       1.38531006       0.00318617      -0.00116190      -0.00878051
Ti       1.04266245       6.22147808       2.11794423      -0.00395813       0.00031972      -0.00247189
Ti       3.57965487       1.35263672       2.11166967      -0.00386768       0.00317266      -0.00500848
Ti       0.23143819       3.50092241       2.75110253       0.00218134       0.00019565       0.00263238
Ti       2.77280697       8.37073179       2.75954848       0.00017009       0.00200110       0.00468583
Ti       1.10654497       0.87302609       3.50220258      -0.00015043       0.00264052       0.00817200
Ti       3.65283545       5.73903435       3.49999535      -0.00233931       0.00028872       0.00844472
Ti       2.76205980       3.10813772       4.18829778      -0.00017574      -0.00036566       0.00579478
Ti       0.21633626       7.97669430       4.19078838       0.00200700       0.00018377       0.00812311
Ti       3.61023704       0.43704079       4.85542956       0.00333940       0.00247963       0.00338653
Ti       1.06466386       5.30492243       4.85620458       0.00436380       0.00027721       0.00234928
Ti       2.75563802       7.52292715       5.58100337      -0.00379453      -0.00013077      -0.00245933
Ti       0.21075971       2.65172640       5.58051957      -0.00240953      -0.00091656      -0.00589230
Ti       3.60910353       4.86899600       6.30691546       0.00422023      -0.00174419      -0.00605533
Ti       1.06658543       0.00176113       6.30723571       0.00105421      -0.00203112      -0.01043386
Ti       0.21441537       7.06708576       6.96787568       0.00053933       0.00203177      -0.01134810
Ti       2.76087504       2.19545403       6.97687007       0.00008032       0.00066299      -0.01190690
Ti       1.10431648       4.42948309       7.65652695      -0.00290936       0.00127821      -0.00875582
Ti       3.65744881       9.30666340       7.66470915      -0.00215849      -0.00373721      -0.01002513
Ti       0.22608666       1.80921649       8.41533494       0.00093929       0.00133002       0.00275731
Ti       2.76851915       6.67742308       8.39800165       0.00272456      -0.00062325       0.00378532
Ti       1.04375981       8.82843054       9.03692913      -0.00618940      -0.00324762       0.00879281
Ti       3.56684717       3.95516526       9.04698027      -0.00353407       0.00051107       0.01103185
Ti       2.71427916       1.23431809       9.79916037      -0.00022191       0.00349044       0.01113764
Ti       0.16331652       6.09258855       9.76178582      -0.00117966       0.00224782       0.01134523
Ti       3.82672855       8.29461536      10.55533591       0.00263373      -0.00336172       0.00988723
Ti       1.26262971       3.42397800      10.56900571       0.00533966      -0.00268732       0.01549868
Ti       0.01021783       0.92209353      11.19186674       0.00197586       0.00054783      -0.00002914
Ti       2.53539924       5.78215411      11.16679936       0.00253419      -0.00068058      -0.00255478
Ti       3.80004988       3.41243530      11.77456263      -0.00555771       0.00072877      -0.01447524
Ti       1.27979922       8.29020426      11.77041375      -0.00325374      -0.00208714      -0.01008076
Ti       2.39310183       1.21081045      12.60810160      -0.00310177      -0.00061681      -0.01238911
Ti       4.91928085       6.08566768      12.54395169      -0.00258187      -0.00140948      -0.01289894
Ti       1.52616671       3.94024360      13.31758507       0.00663239      -0.00629564      -0.01096498
Ti       4.08758258       8.83466145      13.27092003       0.00117135       0.00019896      -0.00909464
Ti       4.85228126       1.86475973      13.95011226       0.00082698      -0.00356465      -0.00236008
Ti       2.30301446       6.70805908      13.92163752      -0.00024933       0.00405551      -0.00493396
Ti       1.41670909       9.36786697      14.71305650       0.00492364       0.00385618       0.00731663
Ti       3.91150997       4.44447016      14.69136791       0.00243535      -0.00230498       0.00343981
Ti       4.88888761       7.08185573      15.33513496      -0.00347626       0.00400752       0.00803485
V        2.37480724       2.20624080      15.34706262      -0.00532077      -0.00278884       0.00520621
Ti       1.43410778       4.83895334      15.96627003      -0.00170131      -0.00762242       0.00415429
Ti       3.93415559       0.01298771      15.97839857      -0.00492895       0.00363068       0.00515507
Ti       2.32831124       7.49577923      16.71908878       0.00413123       0.00354599       0.00166815
Ti       4.88860627       2.61176689      16.68205184       0.00455324      -0.00036961       0.00350378
Ti       4.04497291       5.29986678      17.44604239      -0.00527669       0.00343443      -0.00207416
Ti       1.49660387       0.44366081      17.40866275       0.00177669       0.00127589      -0.00379484
Ti       4.87249851       7.98885348      18.10296975       0.00042317       0.00293426      -0.00739209
Ti       2.34023476       3.10850843      18.04051814       0.00080587      -0.00371302      -0.00646534
Ti       1.43105536       5.74217338      18.80663549       0.00246973       0.00213673      -0.00263113
Ti       3.97711259       0.89079207      18.80955208       0.00034381       0.00168405      -0.00371508
Ti       2.32649125       8.38051408      19.52530450      -0.00108465       0.00649830       0.00121577
Ti       4.87457252       3.50471133      19.49659012      -0.00302749      -0.00559967       0.00581372
Ti       1.49197799       1.35629041      20.14998953       0.00371680       0.00153430       0.00688801
Ti       4.04158933       6.21566066      20.17154786       0.00356964       0.00105847       0.00681827
Ti       4.93140115       8.93698776      20.89625370      -0.00145481      -0.00002731       0.00961823
Ti       2.38993315       4.05125944      20.87512764       0.00041889      -0.00395205       0.00952857
Ti       3.82556517       1.87385479      21.66742483      -0.00343168       0.00063827       0.00661103
Ti       1.28235637       6.74115195      21.67494591      -0.00317309       0.00157527       0.00832939
