64
Lattice="5.088765 0.0 0.0 0.0 9.739025 0.0 0.0 0.0 22.303587" Properties=species:S:1:pos:R:3:forces:R:3 job_name=T2-V-V-50-d-6.29 GB_type=T2 element=V system=V-50-d-6.29 distance=6.29 energy=-495.97612857 stress_kbar_3x3="_JSON [[0.38019077, 9.52547751, -0.17873832], [9.52547752, -18.32580939, 0.24878308], [-0.17873832, 0.24878307, -18.40381791]]" pbc="T T T"
Ti       2.52414656       9.37923083      22.11039980       0.01024733      -0.00767821       0.00744158
Ti       5.06086286       4.51809881      22.12307244      -0.00188818       0.00917968       0.00489215
Ti       1.22528536       1.90815867       0.56615373       0.00236899       0.00029886       0.00253956
Ti       3.75498655       6.77851502       0.56298538       0.00883195       0.00402015      -0.00062563
Ti       2.83192707       4.01334641       1.45208785      -0.00691625       0.01075077      -0.01050773
Ti       0.29204410       8.88466362       1.44021888      -0.00903607       0.00336797      -0.01233853
Ti       0.97151983       6.06866914       2.07565680      -0.00006524       0.00031112      -0.00488874
Ti       3.52255585       1.18861580       2.08174334      -0.00028113       0.01398052      -0.00503109
Ti       0.15055295       3.38868275       2.77425393       0.00594939      -0.00696244       0.00159647
Ti       2.69398077       8.25402832       2.77307137       0.00683444      -0.00131642       0.00586220
Ti       1.10505480       0.81495400       3.52866501      -0.00707662      -0.00020185       0.01598102
Ti       3.64713418       5.68395376       3.53399537      -0.00764434      -0.00480252       0.00071626
Ti       2.75967594       3.03279003       4.15178845      -0.00363247      -0.00106486       0.00150244
Ti       0.21293574       7.90540489       4.14663031       0.00248084      -0.00597974       0.00773057
Ti       3.60141931       0.35907982       4.83696586       0.00741912      -0.00050064       0.00689937
Ti       1.05746511       5.23249928       4.83381295       0.00014790      -0.00752020       0.00949199
Ti       2.74692566       7.44249999       5.61109393       0.00008464       0.00748168       0.00256807
Ti       0.20285811       2.57646014       5.60801594       0.00103094      -0.00465959       0.00326768
Ti       3.59147312       4.77644735       6.30910018       0.00615742      -0.00557798      -0.01123108
Ti       1.05264657       9.64532212       6.30481278      -0.01512280      -0.00147772      -0.00403116
Ti       0.16897557       6.98898187       6.92871958      -0.00066584       0.00511694      -0.01217036
Ti       2.71533356       2.12238033       6.92857112      -0.01154222      -0.00744276      -0.00421831
Ti       1.10352214       4.40803499       7.66518044      -0.00151462      -0.00973159      -0.01118739
Ti       3.64884256       9.27676900       7.66228765      -0.00477208      -0.00395453      -0.01535995
Ti       0.26996150       1.72931015       8.38032426       0.01777974      -0.00494544      -0.00270789
Ti       2.81845282       6.59946113       8.38730227       0.00739662      -0.00732587      -0.00778422
Ti       0.97677277       8.66857881       9.01388170       0.00666877       0.00243802      -0.00009626
Ti       3.52151173       3.79970140       9.01950607       0.01570831      -0.00151720       0.00835066
Ti       2.60565736       1.01247219       9.84686340      -0.00425086      -0.01667308       0.00407598
Ti       0.06797030       5.87876165       9.85403169      -0.00579026      -0.00182440       0.00327445
Ti       3.85500321       8.14677005      10.59732256       0.00616652      -0.01658691      -0.00760313
Ti       1.30794366       3.27713797      10.59954097      -0.00421623       0.00088475      -0.00418382
Ti       0.03147555       0.84711465      11.05583468      -0.00119104      -0.00165446       0.00538296
Ti       2.58328057       5.71694812      11.06275623      -0.00739883      -0.00600751       0.00492237
Ti       3.86095071       3.43311451      11.77316181      -0.00453781       0.01286349       0.01215255
Ti       1.31767059       8.30328379      11.76136026      -0.00097088       0.00044342      -0.00249502
Ti       2.30730674       1.30344913      12.61176744       0.00459807      -0.00251590      -0.00648915
Ti       4.86889004       6.17277975      12.62649491      -0.01037533       0.00268657       0.00427596
Ti       1.51766766       4.04607349      13.28674893       0.00339683       0.01406690       0.00496418
Ti       4.06514014       8.90945834      13.27914620       0.01057278       0.01347335      -0.00521576
Ti       4.93208882       1.85574555      13.91183489      -0.00925138       0.01073571       0.00039289
Ti       2.38809025       6.71640498      13.89549869      -0.01656644      -0.00016930       0.00523977
Ti       1.42715801       9.28261294      14.67766620       0.00052906      -0.00437218       0.00635957
Ti       3.97868950       4.42895329      14.70421485      -0.00358412       0.00444417       0.00839673
Ti       4.81370646       7.07354778      15.37358541       0.00431862       0.00215857       0.00239709
Ti       2.27578580       2.22848717      15.31808056       0.00267973      -0.00751082       0.00627149
Ti       1.55993358       5.01130287      16.02870175       0.00918345      -0.01542444      -0.00849549
Ti       4.06361345       0.11991860      16.00193418      -0.00722949      -0.00064755      -0.00794018
Ti       2.45037693       7.62022346      16.81255140       0.00519315       0.00524112       0.00529797
Ti       4.94988548       2.82946879      16.81789987       0.01346013      -0.00214039      -0.00213504
V        3.94165875       5.42397109      17.58141701       0.00518607      -0.00134237      -0.00074648
Ti       1.42984593       0.52921514      17.50083036       0.00489600       0.00286536      -0.00582967
Ti       4.98450283       7.99099932      17.97819771       0.00882459       0.00368841       0.00556561
Ti       2.45656174       3.14596371      17.98014623      -0.01032824      -0.00394074      -0.01553354
Ti       1.35295334       5.64726606      18.74578310       0.00419124       0.00532367       0.00603241
Ti       3.94454031       0.82386042      18.75796535       0.00288159       0.00527344      -0.00242170
Ti       2.19154261       8.37108468      19.50123148      -0.01416597       0.00964206       0.00380772
Ti       4.71262473       3.53692032      19.49445571      -0.00697653       0.00858848       0.00514677
Ti       1.64103493       1.61607114      20.14054287      -0.00425160      -0.00553528       0.00442876
Ti       4.15405583       6.47398097      20.11716644       0.00514415       0.01355206       0.00910594
Ti       5.06986942       9.27013811      20.99128645      -0.00703860      -0.01050166       0.00095136
Ti       2.51284817       4.38871672      21.00572709      -0.00606997       0.00129021      -0.00690339
Ti       3.77803290       2.09679366      21.76565790       0.00731020       0.00349539      -0.00937258
Ti       1.21715792       6.95701086      21.74353187      -0.00328711       0.00184375       0.00026076
