64
Lattice="5.088765 0.0 0.0 0.0 9.739025 0.0 0.0 0.0 22.303587" Properties=species:S:1:pos:R:3:forces:R:3 job_name=T2-V-V-40-d-2.77 GB_type=T2 element=V system=V-40-d-2.77 distance=2.77 energy=-496.04941689 stress_kbar_3x3="_JSON [[-1.95895209, -3.77682909, -1.81886447], [-3.7768291, -16.46849204, -1.23031572], [-1.81886448, -1.23031573, -18.90929214]]" pbc="T T T"
Ti       2.57972401       9.33961816       0.10904930       0.00018684       0.01034710       0.00036688
Ti       0.03227698       4.46506771       0.11214815      -0.01188622       0.00484943       0.00871897
Ti       1.30319235       2.03299609       0.58218838      -0.00845194      -0.00048449      -0.00660203
Ti       3.84541915       6.90453491       0.57346044      -0.00542131      -0.00472541      -0.00691671
Ti       2.59420012       4.31620247       1.29396943       0.00833386       0.00178535       0.00355886
Ti       0.05479379       9.18332517       1.28179580       0.00117364       0.00103131       0.00896576
Ti       1.00693433       6.42495634       2.13341267      -0.00231662      -0.00083936       0.01506963
Ti       3.55759372       1.55637800       2.13379528       0.00251695      -0.00193421       0.00707143
Ti       0.27191243       3.64944386       2.78872481       0.00077561      -0.01042683       0.00177936
Ti       2.82064994       8.52286622       2.78046632       0.00064605      -0.01254404       0.01007828
Ti       1.10383452       0.96331892       3.47097345       0.00227979      -0.00781777       0.00505808
Ti       3.64893408       5.83552993       3.48011720       0.00122859      -0.00855089       0.00351096
Ti       2.71918579       3.24585057       4.22481295       0.00176372       0.00178505       0.00978008
Ti       0.17695851       8.12052235       4.21418337       0.00306477       0.00004336       0.00953575
Ti       3.61015033       0.60844179       4.86307550      -0.00040826      -0.00116127      -0.00117217
Ti       1.06574082       5.46746004       4.85933706       0.00192165      -0.00078215      -0.00034490
Ti       2.76817600       7.67413617       5.54451683      -0.00458334      -0.00279086       0.00044155
Ti       0.22471905       2.80451664       5.55469636      -0.00320328       0.00238064      -0.00240627
Ti       3.60875315       5.00453065       6.30344117      -0.00046558       0.00349994       0.00416911
Ti       1.07241802       0.14564410       6.28576199       0.00339422       0.00402777       0.00540660
Ti       0.24468505       7.22417117       6.99367622       0.00767192      -0.00294837      -0.00063345
Ti       2.76949549       2.33290000       7.03962982       0.00833826       0.00388915       0.00235391
Ti       1.09366443       4.55318458       7.65508625       0.00290071      -0.00093095       0.00665682
Ti       3.64815920       9.41700109       7.65414122       0.00238809      -0.00148026      -0.00219970
Ti       0.17906021       1.92591572       8.35561433       0.00367043       0.00619210       0.00792422
Ti       2.73657725       6.81004107       8.37420940      -0.00779873      -0.00571181       0.00510352
Ti       1.07979668       9.10497968       9.08670083       0.00448827      -0.00659422      -0.00700192
Ti       3.61220029       4.15355232       9.09514631      -0.00377329      -0.00411927       0.00529214
Ti       2.87263996       1.43109213       9.81460412      -0.00170900      -0.00010376      -0.00894865
Ti       0.29093789       6.31770045       9.68668678       0.00231043      -0.00866546      -0.00631267
Ti       3.78266911       8.44215799      10.48588625      -0.00898404       0.00505812      -0.00725692
Ti       1.07226479       3.57173708      10.45770784       0.01544472       0.00701454      -0.00702655
Ti       0.04120224       0.91508503      11.46438193       0.00514027       0.00025291      -0.00709858
Ti       2.66792165       5.75808518      11.22681226      -0.00715541       0.00198422       0.00010617
Ti       3.79436323       3.26363882      11.97581804       0.00065674      -0.00141147      -0.01385613
Ti       1.35512443       8.07236716      11.69657316       0.00746602      -0.00067352       0.00197502
Ti       2.59548587       0.77297898      12.52686030       0.00099549       0.00866039      -0.01065148
Ti       0.13785808       5.70407089      12.39294370      -0.00068243      -0.01042069       0.01298591
Ti       1.26068237       3.36748519      13.23495021       0.00666516       0.00228207       0.01026160
Ti       4.24464808       8.40262910      13.19877567      -0.01073131      -0.00633735       0.00555377
V        4.60956516       1.60206122      14.08020037       0.01081039       0.00817080      -0.00306833
Ti       2.22370086       6.59921972      13.96540394      -0.00052972      -0.01143616       0.00968933
Ti       1.34901242       9.28174996      14.65787795       0.00781857       0.00144840      -0.01229743
Ti       3.99395206       4.39159579      14.58176329       0.00123273       0.00395880       0.00082363
Ti       4.95782768       6.96516233      15.42807008       0.00003053      -0.00651231      -0.01223143
Ti       2.35926988       2.14146349      15.39794933      -0.01195310       0.00578012       0.00156114
Ti       1.45237457       4.72867984      15.98557007       0.00408093      -0.00727852      -0.00274290
Ti       3.93515655       9.56690274      15.89450625       0.00366432      -0.00466497      -0.00517962
Ti       2.34196601       7.38880600      16.67845681       0.00742600       0.01113571      -0.00019257
Ti       4.86562001       2.51240433      16.63355326       0.00114738       0.00407680      -0.00029806
Ti       3.99707504       5.15016016      17.43605202      -0.01101762       0.00366187       0.00305614
Ti       1.45005034       0.29091411      17.43720226      -0.00289408      -0.00100953      -0.00375769
Ti       4.83230264       7.87262489      18.12833682      -0.00571985       0.00037761       0.00667403
Ti       2.27778463       2.97874522      18.13570052       0.00020283       0.00403080       0.00504669
Ti       1.42280414       5.64853746      18.74960092       0.00522516      -0.00059326      -0.00399277
Ti       3.95738031       0.77987406      18.74643238       0.00187308      -0.00615365      -0.00444684
Ti       2.35781974       8.23329449      19.51569579      -0.00114863      -0.01091027       0.00205207
Ti       4.90386903       3.36475128      19.49818731      -0.00605361      -0.00521892      -0.00525814
Ti       1.51993634       1.17626251      20.20642252       0.00223944      -0.00349083      -0.00435049
Ti       4.07400248       6.04569443      20.20116211       0.00012029       0.00041128      -0.01310539
Ti       4.80117179       8.83259722      20.83349593      -0.00856667       0.01443256      -0.00674651
Ti       2.25529905       3.96508074      20.84160326      -0.00063253       0.01514197      -0.01123512
Ti       3.86629447       1.87127719      21.67644672      -0.01021343       0.00759055       0.00163599
Ti       1.31756870       6.73668686      21.68823887      -0.00499384       0.01342217      -0.00493199
