64
Lattice="5.088765 0.0 0.0 0.0 9.739025 0.0 0.0 0.0 22.303587" Properties=species:S:1:pos:R:3:forces:R:3 job_name=T2-V-V-34-d-0.63 GB_type=T2 element=V system=V-34-d-0.63 distance=0.63 energy=-496.23803216 stress_kbar_3x3="_JSON [[-3.31896485, -4.91351319, -0.50216833], [-4.91351315, -18.58391779, -2.32726761], [-0.5021683, -2.32726759, -17.79354786]]" pbc="T T T"
Ti       2.53331630       9.29236048      -0.00510925      -0.00391246       0.00459077       0.00488553
Ti      -0.00989881       4.42439918      -0.00703662      -0.00215629       0.00386419       0.00118805
Ti       1.25538718       1.89834331       0.61011771      -0.00655448       0.00918199      -0.00419215
Ti       3.79714849       6.76860507       0.61055602      -0.00849975       0.00905641      -0.00294454
Ti       2.72496888       4.07475908       1.39467217      -0.00563617       0.00582243       0.00452167
Ti       0.17883843       8.94075993       1.39558940       0.00008826       0.01203917       0.00383275
Ti       1.03707319       6.22609840       2.12082461      -0.00163774      -0.00350310       0.00831658
Ti       3.58270325       1.35547139       2.12335592      -0.00541544       0.00033990      -0.00093575
Ti       0.21837850       3.51553245       2.76820226       0.00184069      -0.00135609       0.00914820
Ti       2.76168082       8.38381438       2.77450944      -0.00146091      -0.00239344      -0.00789410
Ti       1.10463754       0.89278468       3.49444836       0.00083592       0.00784263      -0.00131462
Ti       3.65017337       5.76078998       3.49580272      -0.00128267       0.00471963       0.01005324
Ti       2.73834642       3.14024032       4.19194414       0.00837825      -0.00146410       0.00176215
Ti       0.19527611       8.00904498       4.19315324       0.00448417      -0.00540405      -0.00432643
Ti       3.59580642       0.47570069       4.86590083       0.00481327       0.00015672      -0.00959863
Ti       1.04972904       5.34475349       4.86631663       0.00378331       0.00093205      -0.00300913
Ti       2.76372392       7.54410283       5.56190146       0.00811302       0.00311658       0.00181033
Ti       0.21674342       2.68038195       5.55752727       0.00518626       0.00017786       0.00558610
Ti       3.60428970       4.88238344       6.32353725       0.00347170       0.00164961      -0.00528902
Ti       1.06635391       0.01616369       6.31096923       0.00513466      -0.00590581      -0.00421911
Ti       0.21642631       7.09036667       7.00238375      -0.00502178       0.00331322      -0.00111526
Ti       2.75557389       2.22893764       6.99654551      -0.00353951       0.01037979      -0.00071627
Ti       1.09653665       4.43468467       7.65324256       0.00583902      -0.00082693      -0.00362043
Ti       3.65158036       9.31421224       7.63524358      -0.00328614       0.01020476      -0.00187056
Ti       0.15595410       1.86933872       8.37066684      -0.00353867      -0.00632515      -0.00331335
Ti       2.70607670       6.73262993       8.38341653       0.01265686      -0.00382601       0.00526212
Ti       1.00085724       8.94053948       9.06953047       0.01006986      -0.00572389      -0.00047052
Ti       3.54765355       4.06530359       9.10815073      -0.00215170      -0.00518599       0.00661811
Ti       2.81701326       1.29984349       9.70350670      -0.00435822       0.00508216      -0.00097833
Ti       0.28974508       6.15854866       9.71245268       0.00111450      -0.00089474       0.00466041
Ti       3.75780032       8.26976787      10.56476946       0.00618490      -0.00886093       0.00173794
Ti       1.14657314       3.42720866      10.58619700      -0.00048233       0.00330241      -0.00918022
Ti      -0.00884970       0.80361765      11.30484623       0.01036973       0.00829400      -0.00237380
Ti       2.55555264       5.65493273      11.35490980       0.00345173      -0.00738364       0.00277124
V        3.77948655       3.16023492      11.62286759      -0.00325671       0.00010715       0.00302725
Ti       1.22031224       8.07723076      11.70312242       0.00804375       0.01184884       0.00490128
Ti       2.53225355       0.96866103      12.40930300      -0.00225882      -0.00142267      -0.00220051
Ti       5.07873269       5.70120257      12.43569726      -0.00161488       0.00333265       0.00545687
Ti       1.76463941       3.67719347      13.23081737       0.00337449      -0.01044488      -0.00545095
Ti       4.16368653       8.61553230      13.27094691       0.00833173      -0.01309273      -0.00505535
Ti       4.70880386       1.90738570      13.88550814       0.00134565      -0.00780934       0.00904688
Ti       2.18478388       6.71781094      13.95451143      -0.00953728      -0.00301719       0.01261095
Ti       1.40448200       9.42732227      14.63524971      -0.00584062       0.00116770      -0.00394125
Ti       3.97769584       4.53263725      14.67952503       0.00450946      -0.00694228      -0.00782943
Ti       4.92760321       7.12002976      15.41209794       0.00407879      -0.00821074      -0.00563410
Ti       2.37936188       2.24019879      15.44112916      -0.01201518       0.01030778      -0.00230777
Ti       1.44604233       4.86615746      15.94736424       0.00321951      -0.00782896      -0.00095758
Ti       4.00052711       0.00331998      15.94370338      -0.00004459      -0.00181895      -0.00047403
Ti       2.34690429       7.52760803      16.68836636       0.00548826       0.00047865       0.00960011
Ti       4.90026706       2.64960859      16.70006352       0.00987146      -0.00542429      -0.01022951
Ti       4.02868540       5.30257814      17.44835629      -0.00464012      -0.00383491       0.00189338
Ti       1.49030825       0.42673219      17.45009155      -0.00571616      -0.00174383      -0.00471370
Ti       4.84505003       8.01858233      18.12376102      -0.00512532       0.00955254       0.00052102
Ti       2.30033381       3.15372594      18.12254818      -0.00134229       0.00797589       0.00580201
Ti       1.42759639       5.78175819      18.78137922       0.00500555       0.00275178      -0.00396353
Ti       3.97512012       0.91503558      18.77899923      -0.00687845      -0.00808316      -0.00646404
Ti       2.32299839       8.40890336      19.54815002      -0.00224543       0.00144075       0.00045605
Ti       4.86365555       3.53907240      19.55150366      -0.00368597      -0.00693281       0.00552814
Ti       1.51388618       1.38826229      20.16697741      -0.00476880      -0.00592352      -0.00646526
Ti       4.05270553       6.25713142      20.16729496       0.00127555      -0.00354665      -0.00227149
Ti       4.93009919       9.01641760      20.91481418      -0.00446720      -0.00024510      -0.00127350
Ti       2.38568110       4.14188465      20.91419664      -0.01037990       0.00067303       0.00766953
Ti       3.79823976       1.93106896      21.69388369      -0.00422747       0.00201993      -0.00411305
Ti       1.25246058       6.80192613      21.68878571      -0.00338088      -0.00034705       0.00203939
