64
Lattice="5.088765 0.0 0.0 0.0 9.739025 0.0 0.0 0.0 22.303587" Properties=species:S:1:pos:R:3 job_name=T2-V-V-47-d-4.86 GB_type=T2 element=V system=V-47-d-4.86 distance=4.86 energy=-495.97081534 pbc="T T T"
Ti       2.58197579       9.30128815       0.05823639
Ti       0.03252173       4.43044436       0.06292109
Ti       1.30430804       1.97526626       0.57118401
Ti       3.85380468       6.84433424       0.57736685
Ti       2.63947328       4.22262599       1.32918736
Ti       0.10418069       9.09201035       1.32314615
Ti       1.00906579       6.32545057       2.13512815
Ti       3.55557310       1.46000855       2.12571361
Ti       0.25283298       3.57426551       2.76742652
Ti       2.79996906       8.44226956       2.76336141
Ti       1.10751375       0.91099036       3.48479273
Ti       3.65034756       5.77753596       3.49172444
Ti       2.72308950       3.18458496       4.20651924
Ti       0.17907806       8.05240753       4.20730396
Ti       3.59262728       0.52348576       4.85353559
Ti       1.04794104       5.39033683       4.85765015
Ti       2.75090002       7.58985305       5.54435334
Ti       0.20602002       2.72267282       5.54547257
Ti       3.60810079       4.93472191       6.31414646
Ti       1.06337654       0.06555776       6.31519903
Ti       0.20596036       7.13994652       6.99959576
Ti       2.75131446       2.27313168       6.99597344
Ti       1.10162383       4.49277766       7.61805700
Ti       3.64520463       9.36300910       7.61837642
Ti       0.14830095       1.92046852       8.37322837
Ti       2.69272479       6.78764385       8.37282388
Ti       0.96514637       8.97544855       9.07855374
Ti       3.51418635       4.11028191       9.07173136
Ti       2.82431517       1.29741607       9.70535335
Ti       0.28512924       6.16497083       9.71309473
Ti       3.75625909       8.27474006      10.58965914
Ti       1.22322411       3.40566735      10.58675844
Ti       5.05024937       0.79453537      11.32922092
Ti       2.51708440       5.67690739      11.34155635
Ti       3.76597323       3.21954141      11.69359202
Ti       1.20900101       8.09867088      11.71076303
Ti       2.51068001       0.92887479      12.45163482
Ti       5.06597789       5.79069160      12.46261759
Ti       1.63824029       3.70788417      13.31634503
Ti       4.15533773       8.58223173      13.33424695
Ti       4.70362632       1.78282240      13.96222182
Ti       2.18425573       6.68932608      13.95066219
Ti       1.35444876       9.41561168      14.71110577
Ti       3.94336401       4.50090656      14.70323699
Ti       4.98397569       7.07329930      15.47382042
Ti       2.45403729       2.18435609      15.47929153
Ti       1.42838894       4.79881883      15.95860066
V        3.94398858       9.64247882      15.87382894
Ti       2.45226501       7.44239943      16.64287927
Ti       4.95643767       2.49811565      16.64122687
Ti       4.06111146       5.20394836      17.45404350
Ti       1.55775784       0.31850401      17.42589777
Ti       4.81635752       7.99118504      18.07993733
Ti       2.27711076       3.10445160      18.13687140
Ti       1.42716544       5.78047232      18.78334919
Ti       3.97671096       0.89390057      18.74947178
Ti       2.37483166       8.35497783      19.55823481
Ti       4.92301002       3.47312484      19.54474276
Ti       1.51031950       1.28700515      20.15842779
Ti       4.05827518       6.16521942      20.16984478
Ti       4.88716016       8.88878681      20.83923833
Ti       2.33162700       4.01445045      20.85628715
Ti       3.84648646       1.86378457      21.66690288
Ti       1.30299234       6.73776399      21.68638454
