64
Lattice="5.088765 0.0 0.0 0.0 9.739025 0.0 0.0 0.0 22.303587" Properties=species:S:1:pos:R:3:forces:R:3 job_name=T2-Zn-Zn-53-d-6.97 GB_type=T2 element=Zn system=Zn-53-d-6.97 distance=6.97 energy=-488.79507974 stress_kbar_3x3="_JSON [[-3.73619116, 0.69580127, -0.52959457], [0.69580125, -19.785992, -0.91675831], [-0.5295946, -0.91675834, -20.00230018]]" pbc="T T T"
Ti       2.53299498       9.24936364      22.28442434      -0.00515658      -0.00944741      -0.00018030
Ti       0.03829858       4.38744519      22.25295917       0.00177199      -0.01302668      -0.00795633
Ti       1.28289567       1.88038405       0.59802605      -0.01553962       0.00372249      -0.00626284
Ti       3.83295592       6.73897856       0.61905755      -0.01290751       0.00586486       0.00000342
Ti       2.73794452       4.06720163       1.36680841       0.00283668      -0.00032777      -0.00451354
Ti       0.17262882       8.93586180       1.39378759       0.00626178      -0.00420235       0.00174381
Ti       1.05434001       6.20949481       2.11529817       0.00568681       0.00147823       0.00060246
Ti       3.57760438       1.33358849       2.12092939       0.00695487      -0.00690406       0.00068438
Ti       0.23005274       3.49635241       2.74017214       0.00130814      -0.00488386      -0.00173891
Ti       2.76798892       8.36083920       2.76445842      -0.00132619      -0.00657635      -0.00166712
Ti       1.11150373       0.87209324       3.50177429      -0.00250930      -0.00478944      -0.00034216
Ti       3.66108364       5.73554600       3.49811092      -0.00386996       0.00400781       0.00004876
Ti       2.76139522       3.10876952       4.17698656       0.00176315      -0.00121395       0.00304843
Ti       0.21482226       7.97486961       4.18561478       0.00283136       0.00183549      -0.00315219
Ti       3.61309002       0.43462546       4.85552983       0.00183283      -0.00032973      -0.00658317
Ti       1.07176762       5.30222348       4.84953054       0.00310253       0.00336996      -0.00163756
Ti       2.75562925       7.51936797       5.57555869      -0.00086487      -0.00219735      -0.00824417
Ti       0.21142923       2.65312088       5.56979090      -0.00083584      -0.00128535      -0.00073923
Ti       3.61688162       4.86834466       6.29741324       0.00272948      -0.00460870       0.00063931
Ti       1.07191668       0.00199369       6.29806291       0.00319853      -0.00263269      -0.00652835
Ti       0.21782713       7.06828896       6.96265463       0.00197639      -0.00655615      -0.00143069
Ti       2.76053292       2.19903999       6.96312579       0.00303183       0.00142347       0.00166769
Ti       1.11171416       4.43368091       7.64651946       0.00124719       0.00050352       0.00212580
Ti       3.65705795       9.30687806       7.64926004      -0.00067709       0.00145197       0.00537026
Ti       0.22857273       1.80888439       8.39442428       0.00150214       0.00147547       0.00675423
Ti       2.77241353       6.67585741       8.39154729       0.00245862      -0.00460787       0.00816864
Ti       1.04283029       8.82954707       9.02982631       0.00118036      -0.00335597       0.01803351
Ti       3.58316397       3.95620966       9.03451318       0.00140621      -0.00391619      -0.00137374
Ti       2.72084040       1.22379827       9.77222784       0.00430853      -0.00566072       0.00562593
Ti       0.17862119       6.09504268       9.75932997       0.00014300       0.00116166       0.00779269
Ti       3.82843668       8.29247978      10.53754378      -0.00109711      -0.00202107       0.00872845
Ti       1.28356064       3.41955485      10.54510123      -0.00268721      -0.00508445      -0.00316770
Ti       0.01273352       0.91817865      11.17362419      -0.00274652      -0.00896585      -0.00371258
Ti       2.55252294       5.78415445      11.16797690       0.00363148       0.01290532      -0.00109639
Ti       3.83133336       3.42059620      11.77494417       0.00672278      -0.00075375      -0.00222034
Ti       1.28598873       8.29378660      11.77254635       0.00435895      -0.00237871      -0.01035341
Ti       2.38740068       1.23965205      12.56821463      -0.00106719      -0.00406322      -0.00590280
Ti       4.93263515       6.09903150      12.54365793      -0.00309910       0.00197835      -0.00701634
Ti       1.51498472       3.95795896      13.28813553      -0.00511448       0.00062359       0.00385281
Ti       4.06122285       8.83240206      13.27015538      -0.00071926      -0.00047856      -0.01592970
Ti       4.87856875       1.81479537      13.96369335      -0.00187756       0.00427949       0.00020341
Ti       2.31756369       6.68694333      13.94076394      -0.00189438      -0.00146512      -0.00775274
Ti       1.44242898       9.30515621      14.66210278      -0.00047278       0.00180339      -0.00156772
Ti       3.98697823       4.45333513      14.62971103       0.00462931      -0.00230439      -0.00180434
Ti       4.87566051       7.06094672      15.34921394       0.00013669      -0.00387244       0.00158560
Ti       2.36680297       2.20901879      15.37834800      -0.00070748       0.00132165      -0.00124741
Ti       1.46057145       4.86842109      16.02371017      -0.00489281      -0.00266030      -0.00335282
Ti       4.01853866       9.71737076      16.00730263      -0.00105920       0.00282882       0.00336171
Ti       2.30673018       7.50000868      16.75438031      -0.00167236       0.00255126       0.00270674
Ti       4.81636412       2.67579940      16.74363191      -0.00202431       0.00374633      -0.00253967
Ti       3.94061278       5.32680905      17.46758751       0.00143746      -0.00159199       0.00230249
Ti       1.44696531       0.46750130      17.45539168      -0.00504428       0.00171838       0.00105182
Ti       4.88271023       7.98826592      18.11791866       0.00098087       0.00368236      -0.00237714
Zn       2.27227958       3.11261140      18.11354039      -0.00000128       0.00207021      -0.00090679
Ti       1.38706495       5.71582812      18.78210468      -0.00219127      -0.00092412      -0.00280876
Ti       3.92011678       0.87636662      18.77814414      -0.00065747       0.00279432      -0.00152777
Ti       2.30037829       8.38986168      19.51362081      -0.00225853       0.00384470       0.00277103
Ti       4.80904919       3.48827444      19.50492335      -0.00797782      -0.00051030       0.00789077
Ti       1.51649422       1.36734897      20.16970797      -0.00047540       0.00909368       0.00334542
Ti       4.06009158       6.24856519      20.18291948      -0.00394886       0.00158137       0.00228940
Ti       4.92771194       8.97350832      20.90866469      -0.00037101       0.01101127       0.00903416
Ti       2.42809007       4.06796118      20.86917930       0.00269792       0.00537747       0.01076704
Ti       3.81796938       1.87833201      21.71300978       0.00738241       0.01474176      -0.00242460
Ti       1.29421312       6.75214323      21.67204056       0.00823436       0.00934823       0.00785915
