64
Lattice="5.088765 0.0 0.0 0.0 9.739025 0.0 0.0 0.0 22.303587" Properties=species:S:1:pos:R:3:forces:R:3 job_name=T2-Zr-Zr-50-d-6.29 GB_type=T2 element=Zr system=Zr-50-d-6.29 distance=6.29 energy=-495.837739 stress_kbar_3x3="_JSON [[6.88962121, -2.75297201, -0.04286665], [-2.75297204, -8.71344302, 4.63580529], [-0.04286664, 4.6358053, -8.23609304]]" pbc="T T T"
Ti       2.59110572       9.32062837       0.14063487       0.00564482      -0.00366676       0.01452111
Ti       0.05703151       4.46240748       0.12140557       0.00821619       0.00195706       0.01272282
Ti       1.32238382       2.03254308       0.58281973       0.00399290      -0.00016057       0.00010376
Ti       3.88366470       6.89637447       0.62129548       0.00553033      -0.00240895       0.00049044
Ti       2.61993971       4.29238131       1.30762073      -0.00684463       0.01332601       0.00052977
Ti       0.07945298       9.17721433       1.32204027      -0.00811992       0.00449089       0.00337173
Ti       1.00817670       6.36581184       2.15982057      -0.00218781       0.00198035       0.00605830
Ti       3.52376709       1.49781906       2.16328706      -0.00130680       0.00503359       0.00092694
Ti       0.29791651       3.54834678       2.78001437      -0.00054068       0.00457838       0.00790244
Ti       2.84287882       8.41797016       2.79610190       0.00244965      -0.00346636       0.00730300
Ti       1.11644623       0.85928378       3.51608798      -0.00037386       0.00030866       0.00995406
Ti       3.66591791       5.72091976       3.50610945      -0.00089573       0.00149572       0.01261890
Ti       2.73283222       3.13261666       4.23718386      -0.00638809       0.00311979       0.00921351
Ti       0.19043924       7.99972444       4.23420033      -0.00640661       0.00221122       0.00540524
Ti       3.62494963       0.47059469       4.85452078      -0.00093159       0.00193368       0.00610012
Ti       1.08044932       5.34115472       4.85119143      -0.00159187       0.00146349       0.00134275
Ti       2.75129503       7.54696127       5.56436981      -0.00610878       0.00186535      -0.00150059
Ti       0.20188336       2.68047394       5.56490966      -0.00176083       0.00050883       0.00127438
Ti       3.61326226       4.89585350       6.30189380       0.00053279      -0.00110291       0.00219957
Ti       1.06850690       0.02458369       6.30407333       0.00205805      -0.00276371       0.00448140
Ti       0.22846608       7.06807348       6.97035593      -0.00691810       0.00083732      -0.00234916
Ti       2.77087847       2.19549406       6.97053608      -0.00372739       0.00428889      -0.00219787
Ti       1.11327974       4.43164253       7.63680799      -0.00088832       0.00248202      -0.01035107
Ti       3.65812617       9.30055243       7.64495842      -0.00226075       0.00365743      -0.00389914
Ti       0.23199292       1.78810050       8.38865192      -0.00065424       0.00526220      -0.00914149
Ti       2.77414721       6.65700920       8.38764193      -0.00197785       0.00284965      -0.00434384
Ti       1.03885918       8.79777343       9.01823323       0.00055219       0.00316982       0.00206879
Ti       3.58061047       3.93204192       9.01014341      -0.00203170      -0.00292357      -0.00366936
Ti       2.69907730       1.16722466       9.76607104      -0.00391628       0.00156545      -0.00987378
Ti       0.14933650       6.03849809       9.76026582      -0.00003776       0.00356526      -0.00355153
Ti       3.83217191       8.25016441      10.52138021      -0.00328569       0.00586818      -0.00389415
Ti       1.29815065       3.37761616      10.51428629      -0.00089470       0.00119200      -0.00396474
Ti       0.01307411       0.88809342      11.12057178      -0.00287405      -0.00570733      -0.00447945
Ti       2.55064906       5.75935709      11.12549088       0.00102831       0.00271520      -0.00213432
Ti       3.84320891       3.41223495      11.73530870       0.00504689      -0.00096391      -0.00200900
Ti       1.28773836       8.28747828      11.75979350       0.00717840       0.00210760      -0.00208469
Ti       2.34627871       1.25039438      12.53462932       0.00747419      -0.00627879      -0.00890639
Ti       4.89382095       6.11752918      12.52209663       0.00368690      -0.00392030      -0.00366297
Ti       1.49067488       3.94392962      13.23166302       0.00741897      -0.00052235       0.00029939
Ti       4.02641404       8.84100410      13.23660821       0.00644723      -0.00390921       0.00088182
Ti       4.85250478       1.78061701      13.90558029       0.00444838      -0.00150486      -0.00519628
Ti       2.32805484       6.66997391      13.90986783       0.00006015      -0.00357178      -0.00782223
Ti       1.42523783       9.29476025      14.62111837       0.00215109      -0.00218025       0.00356724
Ti       3.97251523       4.38433853      14.56087067       0.00357305      -0.00144779       0.01105714
Ti       4.87712795       7.05363432      15.25304091       0.00063469      -0.00481735       0.01275923
Ti       2.34962679       2.16152328      15.33532830      -0.00100741      -0.00371429      -0.00533879
Ti       1.46046238       4.81361691      15.93640313       0.00015214      -0.00278297       0.01318410
Ti       4.01312409       9.65954954      16.00595140       0.00131397      -0.00045480       0.00305170
Ti       2.22431252       7.52099397      16.69121717       0.01268254      -0.01025049       0.00402818
Ti       4.85686785       2.56267996      16.65211410       0.00234047       0.01061521      -0.00278263
Zr       4.00714183       5.27332454      17.45654052      -0.00439418      -0.00665371      -0.00213136
Ti       1.46751024       0.40996913      17.45470332      -0.00048982      -0.00114813       0.00375343
Ti       4.87265420       7.99118659      18.17901141      -0.00230767      -0.01812026      -0.00592688
Ti       2.23161631       3.03311378      18.14502835       0.00416297       0.00840019      -0.00013374
Ti       1.42702355       5.72904459      18.86677315      -0.00181983      -0.00582117      -0.01317634
Ti       3.97482970       0.87745816      18.78595404      -0.00008083      -0.00319344      -0.00874897
Ti       2.38773185       8.30630875      19.51030556      -0.00282306      -0.00413452       0.00499642
Ti       4.92582383       3.39343148      19.60391874      -0.00525085       0.01147968      -0.01359665
Ti       1.54509380       1.21263615      20.24180203       0.00182820       0.00370967      -0.00305449
Ti       4.08579657       6.14069003      20.29243552      -0.00322536      -0.00916219      -0.01011054
Ti       4.82705448       8.88195997      20.87199946      -0.00348331      -0.00293369       0.00032767
Ti       2.31895511       3.96448081      20.85633560      -0.00528009      -0.00261708       0.00636948
Ti       3.87395976       1.86106417      21.74755560       0.00110062       0.00397688      -0.00867919
Ti       1.35129153       6.76642865      21.73512911       0.00138039       0.00028777      -0.00415323
