64
Lattice="5.088765 0.0 0.0 0.0 9.739025 0.0 0.0 0.0 22.303587" Properties=species:S:1:pos:R:3:forces:R:3 job_name=T2-Zr-Zr-47-d-4.86 GB_type=T2 element=Zr system=Zr-47-d-4.86 distance=4.86 energy=-495.83811901 stress_kbar_3x3="_JSON [[7.35085146, 2.81241611, -0.06924861], [2.8124161, -8.51909631, 4.69033409], [-0.06924861, 4.6903341, -7.95561721]]" pbc="T T T"
Ti       2.55280464       9.28610190       0.02628813       0.00031623      -0.00035273       0.00584405
Ti       0.01231573       4.42019667       0.03225525      -0.00515949      -0.00392702      -0.00028444
Ti       1.29990222       1.92990823       0.63822266       0.00001386      -0.00047694      -0.00503228
Ti       3.83329342       6.79605924       0.62935983      -0.00109496      -0.00011364      -0.00447551
Ti       2.69653079       4.14039018       1.38752949       0.00742784      -0.00274555       0.00607524
Ti       0.14688189       9.00894096       1.39190315       0.00089635       0.00239726      -0.00824088
Ti       1.03724877       6.24873533       2.13255394      -0.00073541      -0.00524492      -0.00690152
Ti       3.57763148       1.37586599       2.14268035       0.00434200      -0.00105316      -0.00456775
Ti       0.22962285       3.51798106       2.76528840      -0.00485821      -0.00555062      -0.00524292
Ti       2.77212337       8.38997990       2.76482406      -0.00357025      -0.00409675      -0.00862370
Ti       1.11220387       0.87581562       3.51710890      -0.00477826      -0.00307975      -0.00033505
Ti       3.65671514       5.74595980       3.50837288      -0.00129246      -0.00838163      -0.00752585
Ti       2.76688111       3.11204372       4.18044038      -0.00089453      -0.00411489      -0.00457044
Ti       0.22320225       7.98015780       4.18102269      -0.00069649      -0.00690780      -0.00834837
Ti       3.61308628       0.41233939       4.84891539      -0.00916125       0.00125553      -0.00566422
Ti       1.06737008       5.28404888       4.84537039       0.00187030      -0.00480213      -0.00094059
Ti       2.74724046       7.50031272       5.58550860      -0.00643135      -0.00086904      -0.00184546
Ti       0.19797870       2.62680653       5.58586821       0.00213876       0.00227374      -0.00318232
Ti       3.62272947       4.83681511       6.29508070       0.00242444      -0.00439392       0.00515561
Ti       1.07738194       9.70483595       6.29974674       0.00587762      -0.00007323      -0.00131793
Ti       0.18543930       7.04775732       6.91303508      -0.00412302      -0.00369954      -0.00106251
Ti       2.72933267       2.17473463       6.91162838      -0.00597104       0.00433436      -0.00155550
Ti       1.11498471       4.45017753       7.63296514      -0.00353612      -0.00027449       0.00541614
Ti       3.66483810       9.32794845       7.64061594      -0.00456792      -0.00357102       0.01420036
Ti       0.29736268       1.76012616       8.36925318       0.00438475      -0.00294672       0.00834592
Ti       2.84224283       6.63186472       8.35295473       0.00747592      -0.00388513       0.00703194
Ti       1.00229548       8.67780616       8.99106652      -0.00672745      -0.00166507       0.00804938
Ti       3.51912450       3.80461949       8.98969634       0.00096498      -0.00435053       0.00897835
Ti       2.61632585       1.00795975       9.84557650      -0.00365035      -0.00408505       0.00457383
Ti       0.07427887       5.86399477       9.83058372      -0.00758688      -0.00427545       0.01023263
Ti       3.88335719       8.14750661      10.53568148      -0.00046493      -0.00727397      -0.00700354
Ti       1.32413139       3.27078797      10.57034326      -0.01342619      -0.00848452       0.01205210
Ti       0.05625454       0.83968939      11.02667426       0.00095757       0.01333050      -0.01031452
Ti       2.59112280       5.72149240      11.00677204      -0.00296591       0.00217162      -0.01050608
Ti       3.87307812       3.44665708      11.70832708       0.00314501      -0.00652123      -0.00685071
Ti       1.35083654       8.27940289      11.71919931       0.00102451      -0.00531465      -0.00676752
Ti       2.31585923       1.34445233      12.59998173      -0.00221548       0.00135713      -0.01772954
Ti       4.82231867       6.16514430      12.58509241       0.00243125      -0.00192531      -0.00561714
Ti       1.54693249       4.09813566      13.21427448       0.00511857       0.00229905      -0.01078876
Ti       4.08859600       8.91031070      13.16053204      -0.00137718      -0.00000670      -0.00059342
Ti       4.92747663       1.91799528      13.85577820      -0.00914334       0.00363083      -0.01392187
Ti       2.38947772       6.74368243      13.94720107       0.00603257      -0.00044555      -0.00785952
Ti       1.42651278       9.31807333      14.59050176       0.01451687       0.00625165      -0.00348205
Ti       3.97555126       4.43107908      14.67518846       0.00502322       0.00382063       0.00410711
Ti       4.87631117       7.05647572      15.27570956      -0.00734804      -0.00014810      -0.00070710
Ti       2.23278584       2.27942529      15.31218183      -0.00034532      -0.00624062       0.00542991
Ti       1.46837433       4.89911609      16.00112930      -0.00612554      -0.00180755       0.00206979
Zr       4.01055768       0.03520749      16.00050296      -0.00821145       0.00012863      -0.01261456
Ti       2.22717496       7.52352910      16.76554787       0.00466594       0.01574365      -0.00588090
Ti       4.86053648       2.74552467      16.80627720       0.00425790       0.01115516       0.00993272
Ti       4.01674943       5.38829650      17.44835084      -0.00288439       0.00443296      -0.00731788
Ti       1.46345243       0.49667331      17.51987881       0.00025160       0.00910429       0.00081154
Ti       4.88185178       7.99269556      18.19951530       0.00458810       0.00432752       0.01074159
Ti       2.35486252       3.14799679      18.11869885       0.00417260       0.00427065       0.00120546
Ti       1.42929718       5.75338622      18.83123862       0.00162337      -0.00898881       0.00316318
Ti       3.97582149       0.92491961      18.89239928       0.00215552       0.00154315       0.00601201
Ti       2.33264341       8.37757938      19.54315111      -0.00199168      -0.00131693       0.00744716
Ti       4.85642614       3.52815707      19.54934426       0.00071360       0.00079620       0.00607519
Ti       1.49559485       1.36214895      20.22204804       0.00799224       0.00925945       0.00878123
Ti       4.02916884       6.20568176      20.21677873       0.01203189       0.01015067       0.00430539
Ti       4.89574139       8.92837165      20.93353607       0.00481724       0.00342358       0.00567902
Ti       2.35111519       4.05877344      20.92157875       0.00418825       0.00601642       0.01734948
Ti       3.84504598       1.89363365      21.72043809       0.00604403       0.00629214       0.01771998
Ti       1.29118635       6.75837406      21.69449111      -0.00255001       0.00364387       0.00088602
