64
Lattice="5.088765 0.0 0.0 0.0 9.739025 0.0 0.0 0.0 22.303587" Properties=species:S:1:pos:R:3:forces:R:3 job_name=T2-Zn-Zn-43-d-3.50 GB_type=T2 element=Zn system=Zn-43-d-3.50 distance=3.5 energy=-488.92005816 stress_kbar_3x3="_JSON [[-0.01760326, -4.98791009, -0.27140364], [-4.98791006, -16.02313104, -1.34010339], [-0.27140361, -1.34010339, -16.08982169]]" pbc="T T T"
Ti       2.59327927       9.32658472       0.10619314      -0.00141514       0.00624786      -0.00191502
Ti       0.03277524       4.45372464       0.11836187      -0.00359259      -0.00346071      -0.00324847
Ti       1.31128053       2.01723461       0.58054210       0.00137263      -0.00264470      -0.00279678
Ti       3.85649011       6.88947482       0.56651495      -0.00075204       0.00522181       0.00330331
Ti       2.59997265       4.29930001       1.30131147       0.00134521       0.00010981      -0.00442411
Ti       0.06458732       9.16250810       1.29266117       0.00197165       0.00904370       0.00148854
Ti       0.99887293       6.39279022       2.15159353      -0.00383638       0.01142220       0.00151096
Ti       3.55376646       1.52519581       2.14580158      -0.00881169       0.00708356      -0.00614222
Ti       0.26678945       3.61857662       2.78404028       0.00586525      -0.00381764      -0.00083958
Ti       2.81613804       8.49014659       2.77386453       0.00291935       0.00350730      -0.00148333
Ti       1.10745784       0.93805501       3.49003180       0.00328007      -0.00221535      -0.00045840
Ti       3.64986872       5.81190514       3.49372440      -0.00344684      -0.00436128       0.00536336
Ti       2.71357331       3.22832586       4.22061649      -0.00575012      -0.00097966       0.00061585
Ti       0.17194369       8.09941751       4.22170191      -0.00378371      -0.00156999       0.00361433
Ti       3.59923002       0.57116705       4.86042705      -0.00118806      -0.00223631       0.00126564
Ti       1.05208257       5.43888331       4.86700414       0.00502268       0.00059020       0.00553792
Ti       2.74101091       7.64991263       5.54492556      -0.00216377       0.00237217       0.00091470
Ti       0.19504755       2.78056353       5.55423316      -0.00120521      -0.00014240       0.00225402
Ti       3.59145627       4.99258720       6.31958123      -0.00018141      -0.00082641      -0.00176247
Ti       1.05339758       0.13005694       6.31822786      -0.00019762      -0.00417290       0.00254485
Ti       0.21020823       7.19441012       6.98622387      -0.00214016       0.00034214      -0.00045192
Ti       2.75465326       2.32264955       6.98769348       0.00015908       0.00139753      -0.00160762
Ti       1.08070726       4.52864388       7.67075161       0.00230589       0.00289015      -0.00052652
Ti       3.63458192       9.40793941       7.65506842      -0.00115905      -0.00398361       0.00003501
Ti       0.15601303       1.94517545       8.39020791      -0.00373414      -0.00379917       0.00082505
Ti       2.70406751       6.81377762       8.36928734       0.00107698      -0.00632987      -0.00522345
Ti       1.01644408       9.00741649       9.08176774      -0.00463612       0.00336357      -0.00336781
Ti       3.53687416       4.12373688       9.08666075      -0.00086277       0.00032890      -0.00081581
Ti       2.75281238       1.40835742       9.71517718       0.00394846      -0.00160522      -0.00134345
Ti       0.20835714       6.26002183       9.70781818       0.00850480      -0.00770636       0.00577689
Ti       3.74468007       8.38118857      10.53222831       0.00381293       0.00596597      -0.00116978
Ti       1.13180740       3.53998684      10.60771519       0.00265290       0.00379738       0.00697338
Ti       5.03326139       0.91881361      11.25887455      -0.00065042      -0.00207662      -0.00119128
Ti       2.50440812       5.80538327      11.19077588       0.00472726      -0.00624507       0.00863668
Ti       3.72867720       3.34271722      11.79977375      -0.00039228      -0.00093595       0.00319768
Ti       1.22875016       8.20082179      11.76319612      -0.00476518      -0.00088900       0.00599563
Ti       2.48605231       1.02216962      12.45891356      -0.00485960       0.00133501       0.00320889
Ti       5.03469989       5.88478853      12.48950600       0.00467555      -0.01100105       0.00815566
Ti       1.53386493       3.76876574      13.34352304       0.00815998      -0.00585996       0.00252852
Ti       4.06692741       8.61447640      13.30521880       0.00118849      -0.00536046       0.00000003
Ti       4.80457691       1.65278051      13.93697977      -0.00214295      -0.00280191      -0.00459540
Ti       2.38410480       6.54354735      13.91623613      -0.00258127      -0.00198883       0.00769566
Ti       1.43988067       9.23089732      14.62152253       0.00096698       0.00171734      -0.00536362
Zn       4.05890595       4.28971112      14.62322988      -0.00135190      -0.00220471       0.00196764
Ti       4.96919618       6.88343654      15.29802476       0.00126105      -0.00103082      -0.00179465
Ti       2.42106187       2.07845151      15.41649045      -0.00330638      -0.00457584      -0.00239941
Ti       1.57852216       4.72298176      15.99749261       0.00665158       0.00273276      -0.00843760
Ti       4.05879380       9.58770026      15.99048439       0.00518307       0.00620119      -0.00504036
Ti       2.33103556       7.42098395      16.67458263      -0.00341654      -0.00306854      -0.00039047
Ti       4.93028495       2.52659424      16.66517519      -0.00123454       0.00616367      -0.00617163
Ti       3.99386011       5.15897409      17.41704746       0.00192704       0.00660380      -0.00683733
Ti       1.47716401       0.29663452      17.46089033      -0.00329242       0.00032442      -0.00531064
Ti       4.87664188       7.82756490      18.12445621      -0.00625644       0.00379956      -0.00211825
Ti       2.32818343       2.94373113      18.16491052      -0.00069842       0.00584627      -0.00325008
Ti       1.45061633       5.60369479      18.72382951      -0.00027694       0.01147588      -0.00378032
Ti       3.99958961       0.74706163      18.74540195       0.00091185       0.00376516      -0.00084709
Ti       2.37906467       8.18359303      19.51292955       0.00512054      -0.00013604       0.00341217
Ti       4.91450861       3.34026914      19.50160375      -0.00205592       0.00396134       0.00227662
Ti       1.55581314       1.15291580      20.21993383       0.00183214      -0.00485600       0.00435151
Ti       4.11333599       6.02647070      20.20041234      -0.00596818      -0.00481619      -0.00330009
Ti       4.81719897       8.82265199      20.83731537       0.00109914      -0.00143738      -0.00060561
Ti       2.25353870       3.97941046      20.85673813       0.00338543      -0.00517265       0.00338474
Ti       3.86853399       1.87385802      21.68539339      -0.00024757      -0.00671601       0.00540808
Ti       1.32305670       6.72909442      21.70123926       0.00102576       0.00341395      -0.00323277
