64
Lattice="5.088765 0.0 0.0 0.0 9.739025 0.0 0.0 0.0 22.303587" Properties=species:S:1:pos:R:3:forces:R:3 job_name=T2-Zn-Zn-46-d-4.86 GB_type=T2 element=Zn system=Zn-46-d-4.86 distance=4.86 energy=-488.8466218 stress_kbar_3x3="_JSON [[-2.55836191, 1.00462079, -0.24816757], [1.00462079, -17.36536217, 4.72036264], [-0.24816761, 4.72036268, -17.84009635]]" pbc="T T T"
Ti       2.55522726       9.28757466       0.04587761      -0.00054410       0.00265349       0.00438724
Ti       0.01515730       4.41833647       0.05403447       0.00334613       0.00278064       0.00027026
Ti       1.29627486       1.95759837       0.58417701       0.00087707       0.00362535      -0.00327108
Ti       3.83320890       6.82832757       0.57170325       0.00276227       0.00424543      -0.00090682
Ti       2.63940665       4.20220693       1.34367994      -0.00109264       0.00798178      -0.00126157
Ti       0.09086386       9.06505858       1.34599146      -0.00003967       0.00777493      -0.00226280
Ti       0.98471819       6.28039368       2.12524819      -0.00176246       0.00441785      -0.00110461
Ti       3.53125002       1.40700725       2.13452268      -0.00069447       0.00376153       0.00192609
Ti       0.23314623       3.51725869       2.75386444       0.00166197      -0.00078011       0.00097768
Ti       2.77280339       8.38708455       2.75526568       0.00253954      -0.00121557      -0.00101881
Ti       1.09140185       0.86079030       3.50943711      -0.00199668      -0.00220663      -0.00010268
Ti       3.63560681       5.72983370       3.50538725       0.00046686      -0.00241255       0.00016353
Ti       2.73815453       3.11436673       4.19355052       0.00072040       0.00142968       0.00225694
Ti       0.19362362       7.98384249       4.19114369      -0.00023661       0.00346653      -0.00040460
Ti       3.59053154       0.42435107       4.84513923       0.00128183       0.00200139       0.00034257
Ti       1.04621427       5.29558498       4.84036431       0.00187521       0.00112852      -0.00103411
Ti       2.72563120       7.51490722       5.58464992      -0.00087403      -0.00235245      -0.00072382
Ti       0.17893028       2.64317356       5.58259891      -0.00093307      -0.00312429      -0.00092480
Ti       3.59331670       4.85202997       6.31074152      -0.00379228      -0.00336023       0.00040092
Ti       1.05105598       9.72264755       6.31011481      -0.00367826      -0.00281466       0.00040218
Ti       0.17460474       7.05727951       6.92556844       0.00231348       0.00566453       0.00204362
Ti       2.72035326       2.18714050       6.93006800       0.00184536       0.00338852       0.00366807
Ti       1.08978352       4.45452118       7.65147011       0.00285382       0.00107443       0.00161499
Ti       3.64036330       9.33141879       7.65905385       0.00196277       0.00023825      -0.00026627
Ti       0.27179788       1.77452505       8.38770684      -0.00330594      -0.00143199      -0.00122453
Ti       2.81554128       6.64012117       8.37323260      -0.00292156       0.00005315      -0.00152244
Ti       0.98362735       8.70433097       9.01187604      -0.00320610      -0.00306329      -0.00324065
Ti       3.50745885       3.82996860       9.02841380      -0.00302015      -0.00242154       0.00088592
Ti       2.59434830       1.03926809       9.86015169       0.00109588      -0.00097359       0.00009169
Ti       0.05358220       5.89895064       9.83542341      -0.00031658      -0.00155746       0.00057940
Ti       3.85926512       8.17569957      10.56478767       0.00207919       0.00006884      -0.00103685
Ti       1.29862694       3.31190983      10.59969620       0.00026468       0.00086133       0.00322476
Ti       0.03452789       0.87061823      11.05131007       0.00129089      -0.00465008       0.00133377
Ti       2.56450955       5.74715343      11.05133571      -0.00007576      -0.00437553       0.00051437
Ti       3.85770779       3.46814687      11.79180772      -0.00142082      -0.00306617       0.00147172
Ti       1.34038773       8.31858996      11.77598842      -0.00112224      -0.00191677       0.00012140
Ti       2.28886090       1.34110962      12.61029737      -0.00522430      -0.00175384       0.00064022
Ti       4.82728485       6.20386748      12.58750403      -0.00366185      -0.00241265      -0.00127835
Ti       1.49104335       4.08982151      13.28707616      -0.00232118      -0.00046732      -0.00174012
Ti       4.06762842       8.94635770      13.24153298      -0.00127849      -0.00143248       0.00040259
Ti       4.92575794       1.83395924      13.93712869       0.00012529       0.00060446       0.00301325
Ti       2.43613952       6.72108946      13.97395177       0.00101598       0.00204740      -0.00072272
Ti       1.47733322       9.29176078      14.67465136       0.00000747       0.00345371      -0.00008024
Ti       4.06860857       4.44455576      14.68743457      -0.00066099       0.00159596       0.00154505
Ti       4.95214382       7.09841309      15.30331168      -0.00204469      -0.00319826      -0.00023797
Ti       2.36686732       2.24388691      15.33097178      -0.00065472      -0.00134074       0.00168171
Zn       1.53609427       4.89399324      16.02196407      -0.00047261      -0.00507461      -0.00060499
Ti       4.03453309       0.00365308      16.01251174      -0.00107446      -0.00190335      -0.00106576
Ti       2.35249108       7.53432929      16.73741859      -0.00104065       0.00021025      -0.00381666
Ti       4.94905434       2.67336554      16.75340504      -0.00111712      -0.00179913       0.00136764
Ti       4.08286080       5.32475808      17.41001585       0.00300072      -0.00020383      -0.00237198
Ti       1.51104716       0.49285079      17.41407748       0.00037633       0.00015219      -0.00112924
Ti       4.89771382       8.00273406      18.13026029       0.00246066      -0.00118647       0.00124800
Ti       2.38747890       3.12033558      18.11227881       0.00087434      -0.00151839      -0.00030726
Ti       1.41787150       5.73471322      18.77439024      -0.00093789      -0.00024942       0.00101737
Ti       3.99443361       0.87300960      18.80024432       0.00190035      -0.00181320      -0.00044092
Ti       2.34267299       8.34824581      19.51902743       0.00053629       0.00130628      -0.00102257
Ti       4.88823553       3.46053089      19.54188018       0.00397926       0.00044253       0.00229132
Ti       1.51576311       1.29440707      20.17154348       0.00080513      -0.00038063      -0.00025234
Ti       4.03851470       6.14999764      20.15563533       0.00416684      -0.00011120      -0.00045289
Ti       4.86198603       8.88177051      20.88861787       0.00178142       0.00157176      -0.00326864
Ti       2.31160675       4.02146450      20.87459371      -0.00184988      -0.00054672      -0.00103842
Ti       3.83925291       1.86976419      21.69312955       0.00364015       0.00140465       0.00189006
Ti       1.28928468       6.73389837      21.67382292      -0.00053537      -0.00229018      -0.00163680
