64
Lattice="5.088765 0.0 0.0 0.0 9.739025 0.0 0.0 0.0 22.303587" Properties=species:S:1:pos:R:3:forces:R:3 job_name=T2-Zr-Zr-41-d-2.77 GB_type=T2 element=Zr system=Zr-41-d-2.77 distance=2.77 energy=-495.84022982 stress_kbar_3x3="_JSON [[5.73495203, -0.72244534, 0.61275568], [-0.72244535, -10.3798279, 0.02387927], [0.61275568, 0.02387926, -8.56700589]]" pbc="T T T"
Ti       2.54077159       9.26341089       0.01742374       0.00018394      -0.00119927      -0.00021172
Ti       5.08439577       4.38914287       0.00772795      -0.00021897       0.00174636      -0.00250342
Ti       1.27031302       1.88579478       0.63137757      -0.00036315      -0.00205355      -0.00345128
Ti       3.81580629       6.75042319       0.62574108       0.00091098       0.00662642      -0.00230720
Ti       2.71087206       4.07785432       1.39983754       0.00024554      -0.00100971      -0.00515321
Ti       0.16322443       8.94944029       1.40000786       0.00029160      -0.00107193      -0.00659858
Ti       1.04465706       6.21566013       2.12264807      -0.00166730       0.00518656      -0.00690243
Ti       3.59098483       1.35139094       2.12427137      -0.00272228      -0.00138050      -0.00562712
Ti       0.22137886       3.50365265       2.76392955       0.00038662       0.00037997       0.00031899
Ti       2.76531162       8.37004992       2.76073123       0.00036457       0.00244070      -0.00363404
Ti       1.11428150       0.87652329       3.49490019       0.00066956      -0.00248811       0.00039783
Ti       3.65899161       5.74232335       3.49840581       0.00097220       0.00271028       0.00568807
Ti       2.75782370       3.10961783       4.18134577      -0.00013781       0.00179956       0.00505174
Ti       0.21160080       7.98182594       4.16994988      -0.00224267       0.00138629       0.00632253
Ti       3.61866050       0.43998243       4.84170821      -0.00165832      -0.00303851       0.00278838
Ti       1.07460870       5.30351725       4.83990206      -0.00354395       0.00358463       0.00654706
Ti       2.74757484       7.52478703       5.55664822      -0.00169818      -0.00221671       0.00190900
Ti       0.20760373       2.65487740       5.56702502      -0.00417027      -0.00051128       0.00337780
Ti       3.61268697       4.86603935       6.28675753      -0.00085291       0.00498455      -0.00177759
Ti       1.07115785       0.00430379       6.27426418      -0.00102736      -0.00117936       0.00022103
Ti       0.20059508       7.06672173       6.91989922      -0.00058699       0.00035505      -0.00238209
Ti       2.74850899       2.20088681       6.94773294      -0.00127822      -0.00314863       0.00023113
Ti       1.11220878       4.43971659       7.63579554       0.00103599      -0.00064401      -0.00365730
Ti       3.65721099       9.31198517       7.62349290       0.00171821      -0.00089631       0.00117706
Ti       0.22377249       1.81282068       8.36639445       0.00371869      -0.00118115       0.00195500
Ti       2.76358145       6.69535702       8.35400708       0.00099597      -0.00119635       0.00098755
Ti       1.01924879       8.83508210       8.97858336      -0.00666233       0.00286413       0.00219756
Ti       3.57648139       3.95114523       9.00852549      -0.00563934       0.00170164       0.00432467
Ti       2.70253060       1.22095953       9.74878476      -0.00256302       0.00084028       0.00302880
Ti       0.14015451       6.10586223       9.70326088      -0.00045873       0.00288095       0.00426648
Ti       3.81506498       8.30031329      10.53807259       0.00208236      -0.00456996      -0.00385870
Ti       1.24969760       3.41413602      10.51590514      -0.00000046      -0.00707772       0.00143451
Ti       0.00104573       0.92946761      11.12879914       0.00224892      -0.00388216       0.00277854
Ti       2.52342199       5.75254009      11.05816812       0.00539157      -0.00489036      -0.00286338
Ti       3.79151433       3.40810398      11.74828308       0.00091583      -0.01029727      -0.00141213
Ti       1.26082776       8.28389644      11.65022790      -0.00613306      -0.00972800       0.00200917
Ti       2.37556988       1.15906897      12.54649159       0.00068815      -0.00111247      -0.01101674
Ti       4.92611804       6.05055413      12.45429877       0.00390306      -0.00776631      -0.00047477
Ti       1.52581836       3.89513822      13.25840348       0.00246295      -0.00523611      -0.00145024
Ti       4.19063828       8.87798498      13.26745429      -0.00060467      -0.00325991      -0.00477854
Ti       4.84053398       1.82878893      13.91174254       0.00161852       0.00599492      -0.00318890
Zr       2.33369265       6.72610333      13.89126068      -0.01324433       0.01082948       0.00447426
Ti       1.43307035       9.38293483      14.74227554       0.00391672      -0.00506332      -0.00062925
Ti       4.04250333       4.41902162      14.69654979      -0.00088109       0.00059858       0.00171827
Ti       4.89558862       7.08914650      15.41410179       0.00067964      -0.00528647      -0.00212867
Ti       2.33251792       2.23042869      15.36540033       0.00208956      -0.00137977       0.00624675
Ti       1.46573395       4.84827379      16.05903604       0.00433469       0.00228728      -0.00131655
Ti       3.99418624       0.00320131      16.01137119      -0.00331071       0.00804042       0.00776853
Ti       2.33371524       7.52419708      16.81182953       0.00369409       0.00494851       0.00156630
Ti       4.87822495       2.62760501      16.75706698       0.00257123      -0.00420516      -0.00314375
Ti       4.02858097       5.29235218      17.46611725      -0.00035576      -0.00070708       0.00480476
Ti       1.49042417       0.44178256      17.48302562       0.00278544       0.00189927      -0.00146678
Ti       4.87234274       7.98909556      18.14959061       0.00139177       0.00258187       0.00124204
Ti       2.33185857       3.10734862      18.14668568       0.00327416       0.00237431      -0.00157252
Ti       1.43382911       5.74144991      18.84107329      -0.00294192       0.00244226      -0.00124863
Ti       3.97486118       0.87389591      18.84239417      -0.00165991      -0.00209974      -0.00658621
Ti       2.31127679       8.37564749      19.57646927      -0.00056133       0.00228683       0.00024322
Ti       4.86298220       3.50375105      19.55691632      -0.00015706       0.01074659      -0.00254475
Ti       1.48867364       1.35164360      20.20422439       0.00494928       0.00017271       0.00429757
Ti       4.03771259       6.21605916      20.19412717       0.00331900       0.00481985      -0.00226247
Ti       4.91284100       8.94310989      20.93456333       0.00333673      -0.00503188       0.00226096
Ti       2.37701856       4.07265857      20.93332961       0.00085404      -0.00005935       0.00237301
Ti       3.81593373       1.88156174      21.69704333       0.00045223      -0.00057012       0.00283296
Ti       1.26951903       6.74921894      21.70068187      -0.00111172       0.00592829      -0.00069258
