64
Lattice="5.088765 0.0 0.0 0.0 9.739025 0.0 0.0 0.0 22.303587" Properties=species:S:1:pos:R:3:forces:R:3 job_name=T2-Zn-Zn-50-d-6.29 GB_type=T2 element=Zn system=Zn-50-d-6.29 distance=6.29 energy=-488.8127637 stress_kbar_3x3="_JSON [[-2.79373962, -0.62228829, 0.25308633], [-0.6222883, -19.06232294, 0.3300669], [0.25308635, 0.33006692, -19.23946069]]" pbc="T T T"
Ti       2.55433276       9.25544154       0.03054305      -0.00513109       0.00458287      -0.00128221
Ti       5.06856257       4.38523410       0.00749130      -0.00901449      -0.00646998       0.00130038
Ti       1.27696918       1.89355215       0.61767869      -0.00017366      -0.00004660       0.00036821
Ti       3.80541054       6.75048518       0.58743707       0.00098617       0.00240098       0.00116472
Ti       2.69555074       4.09713364       1.39484537       0.00387941      -0.00230641       0.00135391
Ti       0.13054142       8.96595462       1.35702751       0.00428572       0.00476608      -0.00124066
Ti       1.02613243       6.23056020       2.09854141       0.00084599       0.00127626       0.00203184
Ti       3.58483219       1.36065035       2.12711844       0.00103303       0.00434198      -0.00252887
Ti       0.22701598       3.50703527       2.77129519      -0.00142637      -0.00261831       0.00141483
Ti       2.77094842       8.37161336       2.75758947      -0.00044715       0.00122625       0.00121633
Ti       1.10874982       0.86508762       3.49116576      -0.00043197       0.00102938      -0.00186470
Ti       3.64981762       5.74138275       3.49643514       0.00049070      -0.00300160      -0.00032318
Ti       2.75256230       3.10605246       4.19703442       0.00019114       0.00119576      -0.00230765
Ti       0.20853405       7.97645771       4.18259900      -0.00036637       0.00247781      -0.00113025
Ti       3.61300635       0.43708532       4.85258952      -0.00034226       0.00195746      -0.00050197
Ti       1.06851291       5.31042963       4.84780378      -0.00061502      -0.00176817      -0.00035984
Ti       2.75114270       7.52220642       5.57482652       0.00068895      -0.00010772      -0.00057858
Ti       0.20786082       2.65170654       5.57525101       0.00094538      -0.00051124      -0.00017369
Ti       3.61543214       4.87063240       6.30123262      -0.00040221      -0.00136270      -0.00045161
Ti       1.06952812       0.00172973       6.29731400      -0.00035622       0.00177599      -0.00156062
Ti       0.21152263       7.06952007       6.96211206       0.00000630      -0.00203727       0.00010975
Ti       2.75556042       2.19930176       6.96617212      -0.00138890      -0.00036061       0.00012872
Ti       1.10928195       4.43872107       7.65150564      -0.00030576      -0.00001978      -0.00013346
Ti       3.65261994       9.30611625       7.65074261       0.00033238       0.00201168      -0.00008684
Ti       0.22282801       1.80835971       8.39131524       0.00045707       0.00195301      -0.00284324
Ti       2.77107270       6.67916684       8.39086496       0.00008692      -0.00154421       0.00390930
Ti       1.03095495       8.82363905       9.03355193      -0.00138899      -0.00129249       0.00276853
Ti       3.57135995       3.95299354       9.03879236       0.00100581       0.00030183       0.00177174
Ti       2.70177525       1.22129135       9.76701178       0.00266625      -0.00078237       0.00121250
Ti       0.15707930       6.08188751       9.76663323      -0.00007674      -0.00150080       0.00522355
Ti       3.81803528       8.28714158      10.54765236       0.00086523      -0.00442263       0.00363652
Ti       1.26571714       3.41462083      10.55801400      -0.00119223       0.00008978       0.00397902
Ti       5.07712124       0.91342369      11.15980008      -0.00522858       0.00106470       0.00344292
Ti       2.53900015       5.78227928      11.14572320      -0.00049118       0.00282683      -0.00449711
Ti       3.80213575       3.43706530      11.79197938       0.00209872      -0.00245917      -0.00645911
Ti       1.26442164       8.29699202      11.77554337      -0.00114874      -0.00481228      -0.00161477
Ti       2.35885655       1.25160678      12.53936671       0.00194844      -0.00009132      -0.00248369
Ti       4.88502530       6.11194030      12.55793193       0.00113090       0.00225280      -0.00363414
Ti       1.48443776       3.98579162      13.31377613      -0.00338297       0.00178253       0.00011518
Ti       4.04359238       8.83755186      13.29753588       0.00207329       0.00112663      -0.00232402
Ti       4.85313487       1.81306842      13.93346662      -0.00056602       0.00008076      -0.00382028
Ti       2.31212542       6.69512856      13.91350715      -0.00041823       0.00123454      -0.00112584
Ti       1.43676087       9.31172030      14.65281270      -0.00182503       0.00155238      -0.00576951
Ti       3.94961636       4.44964434      14.68800910       0.00097834       0.00262686       0.00049802
Ti       4.92018477       7.06708752      15.35567539      -0.00064908      -0.00327753      -0.00130884
Ti       2.33942931       2.18574180      15.33586884       0.00285180       0.00022763       0.00069914
Ti       1.51966619       4.87107841      16.04667357       0.00020588      -0.00045170      -0.00225237
Ti       4.03834499       9.70779506      16.03708382      -0.00057335      -0.00232988      -0.00065597
Ti       2.39281187       7.52221469      16.70733645       0.00022814      -0.00150926       0.00027216
Ti       4.89093998       2.66491596      16.72702825      -0.00217369       0.00111368      -0.00228573
Zn       4.06285251       5.31056011      17.43090467       0.00079577      -0.00160231      -0.00329172
Ti       1.47183418       0.44762656      17.43862327       0.00146303      -0.00055296      -0.00015983
Ti       4.89638796       7.96100862      18.11475087      -0.00184287      -0.00133668      -0.00094509
Ti       2.38766084       3.11325250      18.14000782      -0.00047030       0.00169345      -0.00126722
Ti       1.50001222       5.75951660      18.77770836      -0.00122716      -0.00028246      -0.00201740
Ti       4.00760906       0.92109494      18.78296177       0.00073719       0.00160344       0.00080627
Ti       2.33803316       8.40128966      19.52529818       0.00029899      -0.00042010       0.00145015
Ti       4.91806723       3.51138309      19.51139408      -0.00064911      -0.00175228       0.00355601
Ti       1.48781119       1.32400896      20.18843137      -0.00042944      -0.00249328       0.00859406
Ti       3.99579735       6.17870936      20.13886694       0.00183056      -0.00127438      -0.00037141
Ti       4.87358460       8.89012547      20.87413387       0.00133534       0.00299378       0.00361655
Ti       2.33832271       4.03534909      20.91627447       0.00494950      -0.00300884       0.00266744
Ti       3.83104476       1.86295425      21.66076567       0.00241649      -0.00036657       0.00440358
Ti       1.26322852       6.72554409      21.63463235       0.00002632       0.00460675       0.00194005
