64
Lattice="5.088765 0.0 0.0 0.0 9.739025 0.0 0.0 0.0 22.303587" Properties=species:S:1:pos:R:3:forces:R:3 job_name=T2-Zr-Zr-43-d-3.50 GB_type=T2 element=Zr system=Zr-43-d-3.50 distance=3.5 energy=-495.88054922 stress_kbar_3x3="_JSON [[7.05038852, -5.62537905, -0.20237737], [-5.62537906, -8.15809789, -0.90200438], [-0.20237737, -0.90200438, -6.95831355]]" pbc="T T T"
Ti       2.58194003       9.30268509       0.08151342      -0.00270209      -0.00164060      -0.00334658
Ti       0.04239003       4.43360757       0.08375665      -0.00284897       0.00179328      -0.00471781
Ti       1.30875120       1.97613426       0.60617401       0.00053718      -0.00006532      -0.00486907
Ti       3.85779106       6.84658706       0.62198762       0.00030178       0.00335056      -0.00731120
Ti       2.64753260       4.22589345       1.33625604       0.00284157       0.00486666      -0.00513082
Ti       0.10715501       9.09827675       1.34558210       0.00024028       0.00384861      -0.00113569
Ti       1.03792897       6.33119154       2.14782346      -0.00040115       0.00442947       0.00163115
Ti       3.57438052       1.46370349       2.14222974      -0.00036249      -0.00153842       0.00109683
Ti       0.25513584       3.58391213       2.77146446      -0.00111731       0.00089873       0.00215698
Ti       2.79904400       8.45532544       2.77471582       0.00086387       0.00179456       0.00411776
Ti       1.11819311       0.92001368       3.48885577      -0.00023075      -0.00154465       0.00277213
Ti       3.66440870       5.78615781       3.48807667      -0.00154983       0.00539493       0.00252630
Ti       2.73136842       3.19332881       4.19377367      -0.00004066      -0.00155798       0.00780263
Ti       0.18813900       8.06250403       4.19412480      -0.00065633       0.00146908       0.00227414
Ti       3.60992406       0.52971950       4.85063566       0.00014585      -0.00081110       0.00574016
Ti       1.06700530       5.39909044       4.85091808       0.00178971       0.00249349       0.00531629
Ti       2.76615258       7.59715841       5.53254791      -0.00056518       0.00418855       0.00443148
Ti       0.22080140       2.72811746       5.53161340      -0.00029008      -0.00068388       0.00777362
Ti       3.62583440       4.93653800       6.29167151       0.00042400      -0.00101953       0.00506529
Ti       1.07579328       0.06952327       6.29064142       0.00055133       0.00123195       0.00336396
Ti       0.21765935       7.14926642       6.97054389      -0.00012496      -0.00003668       0.00120360
Ti       2.76005620       2.27393270       6.97938265      -0.00181255      -0.00058902       0.00238839
Ti       1.11917994       4.49255870       7.59551753       0.00094241       0.00106906       0.00178504
Ti       3.66003640       9.36415924       7.60822499       0.00060674       0.00301910      -0.00566234
Ti       0.15604930       1.92147475       8.33685336       0.00106425       0.00241984      -0.00513464
Ti       2.71032462       6.78768299       8.32937753      -0.00284736      -0.00092920      -0.00240268
Ti       0.99798352       8.99217154       9.03449360       0.00063375       0.00071828      -0.00443079
Ti       3.54546497       4.11623206       9.04520625      -0.00082719      -0.00027178      -0.00704903
Ti       2.82696130       1.31134248       9.67389979      -0.00357829       0.00455285      -0.01180719
Ti       0.31087410       6.18799331       9.64929968       0.00443287       0.00078165      -0.00353494
Ti       3.77230379       8.26887654      10.53030439      -0.00178624      -0.00511450      -0.00101501
Ti       1.22072098       3.41429667      10.51587076      -0.00054241       0.00065256      -0.00662845
Ti       5.04733064       0.81224677      11.26666954       0.00141557      -0.00214701      -0.00104256
Ti       2.52202555       5.67600847      11.29311432      -0.00144705       0.00256577       0.00035696
Ti       3.77637351       3.22539049      11.67635407       0.00246092       0.00583485      -0.00232111
Ti       1.24276347       8.12705736      11.65666534      -0.00315840      -0.00469609      -0.00061900
Ti       2.49843858       0.93602839      12.42230203       0.00108196      -0.00102984      -0.00032789
Ti       5.06177388       5.87452210      12.34298951       0.00130236       0.00241572      -0.00655830
Ti       1.52208383       3.69459212      13.23085204      -0.00263907       0.00649441       0.00336320
Ti       4.14114428       8.57419856      13.28677420       0.00210507      -0.00204117      -0.00119013
Ti       4.73756617       1.66445701      13.91950880      -0.00377771       0.00012338       0.00524868
Ti       2.12203398       6.67293707      13.92959646       0.00052130      -0.00249860      -0.00022520
Ti       1.43218767       9.31953521      14.65736632       0.00027802      -0.00425764       0.00094192
Zr       3.96699194       4.49694115      14.61322566       0.00144651      -0.01502770       0.01078033
Ti       4.92959231       7.08911479      15.48408881      -0.00161192      -0.00167768       0.00952776
Ti       2.29423289       2.14201221      15.42645282       0.00581223       0.00506549       0.00586497
Ti       1.45095449       4.81858999      16.07554152       0.00007673      -0.00064680       0.00150964
Ti       3.99783636       9.69134179      16.01217220      -0.00140427       0.00168378       0.00343724
Ti       2.36642556       7.46585493      16.70579306       0.00278403      -0.00533815       0.00597067
Ti       4.88072518       2.56903842      16.74382356      -0.00302396       0.00293532      -0.00210277
Ti       4.02829876       5.24595424      17.54077624      -0.00279835       0.00228601       0.00152252
Ti       1.47283036       0.35128106      17.48203208       0.00095709      -0.00565633       0.00548095
Ti       4.84203644       7.94428697      18.17208512       0.00116959      -0.00541129       0.00466087
Ti       2.29789000       3.05149398      18.15088576       0.00354428      -0.00066683      -0.00153055
Ti       1.44082981       5.72997571      18.82452514      -0.00042070       0.00532188       0.00050851
Ti       3.97515465       0.84836957      18.82052032      -0.00114632      -0.00480861       0.00298756
Ti       2.36223549       8.31646249      19.56769226      -0.00028174      -0.00330337      -0.00368291
Ti       4.90118439       3.44680183      19.55993242      -0.00105965       0.00058474       0.00141376
Ti       1.51385577       1.27058540      20.21826264       0.00091538      -0.00302833      -0.00145399
Ti       4.06869092       6.14516672      20.24062481       0.00379882      -0.00077194      -0.00532758
Ti       4.87319562       8.88352570      20.89088687       0.00107795      -0.00333640      -0.00813811
Ti       2.32459412       4.00872279      20.87883958      -0.00021402      -0.00344958      -0.00587351
Ti       3.85594689       1.87375325      21.70615675      -0.00040569      -0.00043054      -0.00425845
Ti       1.31982979       6.74495763      21.71421301      -0.00045070       0.00174198      -0.00619300
