64
Lattice="5.088765 0.0 0.0 0.0 9.739025 0.0 0.0 0.0 22.303587" Properties=species:S:1:pos:R:3:forces:R:3 job_name=T2-Zr-Zr-52-d-6.97 GB_type=T2 element=Zr system=Zr-52-d-6.97 distance=6.97 energy=-495.78987211 stress_kbar_3x3="_JSON [[6.53045177, -0.36810686, 0.42093268], [-0.36810683, -9.89484954, -0.04029587], [0.42093268, -0.04029588, -9.3592535]]" pbc="T T T"
Ti       2.52170206       9.25262743       0.03588958       0.00311139       0.00730213       0.00122934
Ti       0.00782590       4.38298177       0.02737780      -0.00522479      -0.00719157       0.00226600
Ti       1.26550447       1.87799809       0.63709149       0.00522567       0.00287376      -0.00239517
Ti       3.81720217       6.74634242       0.65250991      -0.00003339      -0.00126411       0.00298210
Ti       2.70471074       4.07128381       1.39467330       0.00129804      -0.00123381      -0.00637443
Ti       0.15904316       8.95043688       1.43802455       0.00078395       0.00474412       0.00406670
Ti       1.05711971       6.22344351       2.13865626       0.00047233      -0.00020147       0.00090554
Ti       3.58258757       1.35059810       2.12958417      -0.00131061       0.00064939      -0.00498228
Ti       0.22491846       3.50622890       2.77593000       0.00184558       0.00073985      -0.00464162
Ti       2.76550515       8.37560432       2.79326788      -0.00015046       0.00228185       0.00070674
Ti       1.10855677       0.87827735       3.51836929      -0.00107244      -0.00144548      -0.00146798
Ti       3.65739377       5.73828960       3.50338464      -0.00273140       0.00212461       0.00342902
Ti       2.75647403       3.11014735       4.19372564      -0.00091372      -0.00103319       0.00019273
Ti       0.21044302       7.97529920       4.20483752      -0.00017046       0.00017241      -0.00132737
Ti       3.61900603       0.43901888       4.86378347      -0.00016350      -0.00050058       0.00020600
Ti       1.07362606       5.30675793       4.86426310       0.00102881       0.00248199      -0.00107691
Ti       2.75366788       7.52146532       5.58236301      -0.00095051       0.00114408      -0.00049157
Ti       0.20824557       2.65510346       5.58165520      -0.00054831       0.00050976       0.00202694
Ti       3.61879882       4.86806544       6.29619681       0.00300353       0.00059954      -0.00055857
Ti       1.07357913       0.00063345       6.29953805       0.00273723      -0.00072640       0.00116514
Ti       0.21000741       7.06868031       6.96404998      -0.00094105       0.00058629      -0.00106789
Ti       2.75445231       2.19874009       6.96298106      -0.00106360      -0.00171594      -0.00078266
Ti       1.11158176       4.43309467       7.65054658       0.00073544      -0.00096072      -0.00256914
Ti       3.65678596       9.30603811       7.65237874       0.00064205      -0.00039284      -0.00248738
Ti       0.22432891       1.80683890       8.38543869      -0.00202671      -0.00184369      -0.00145626
Ti       2.76799083       6.67397842       8.37648068      -0.00125697       0.00042935       0.00284889
Ti       1.04721067       8.82611825       9.02198963      -0.00178951      -0.00230051       0.00378487
Ti       3.58601904       3.95612878       9.02500251      -0.00271221      -0.00038429      -0.00122879
Ti       2.70371621       1.23186634       9.75659520       0.00161004      -0.00173645      -0.00050912
Ti       0.16256342       6.09996398       9.74304914      -0.00169599       0.00032981       0.00239768
Ti       3.81320883       8.29386170      10.51812661       0.00159524      -0.00173591      -0.00228788
Ti       1.26667324       3.42362036      10.52734918       0.00552027       0.00457050       0.00418135
Ti       5.08837251       0.91738247      11.12951187      -0.00229198      -0.00265654       0.00123676
Ti       2.53208341       5.78584654      11.12780723       0.00079773      -0.00257474      -0.00008572
Ti       3.80880036       3.42174529      11.75165293       0.00090549      -0.00358900       0.00481183
Ti       1.26677015       8.29312198      11.75145597       0.00176721       0.00167671      -0.00382343
Ti       2.36932833       1.22597954      12.53173105      -0.00336874      -0.00361714       0.00577000
Ti       4.90852301       6.08390320      12.51083889      -0.00405702      -0.00514549      -0.00199258
Ti       1.51033812       3.96548965      13.25599192       0.00108836      -0.00473187       0.00352618
Ti       4.05516992       8.83158466      13.23848235      -0.00186239       0.00438675      -0.00406688
Ti       4.86140647       1.82118063      13.88405464      -0.00015140       0.00640889      -0.00543575
Ti       2.31608141       6.68447920      13.87541386       0.00085222       0.00038991      -0.00417902
Ti       1.42382267       9.32356011      14.65114350       0.00322584       0.00698825      -0.00248016
Ti       3.98408306       4.43261433      14.65193961      -0.00168356      -0.00795571       0.00296922
Ti       4.86897103       7.05031739      15.25510690      -0.00273432      -0.00742443       0.00496455
Ti       2.32518088       2.21932548      15.31763046       0.00582920       0.00810624      -0.00007009
Ti       1.44878555       4.86826838      15.99768643       0.00184749      -0.00725970      -0.00373675
Ti       3.99696542       0.02337059      15.92623550       0.00135486       0.00465422      -0.00056461
Ti       2.34228320       7.49665345      16.65551945       0.00171045      -0.00107631       0.00020697
Ti       4.88454603       2.61263859      16.72684635      -0.00603147       0.00362938      -0.00316081
Ti       4.03156720       5.25257691      17.40833717      -0.00099703      -0.00061262      -0.00014817
Ti       1.57318692       0.47038119      17.42505451      -0.00305284       0.00046971      -0.00118055
Zr       4.87338052       7.99994553      18.11277683       0.00187786       0.00064577       0.00016301
Ti       2.31937292       3.11664358      18.10566829       0.00379576      -0.00162162      -0.00149265
Ti       1.50371242       5.72165935      18.82428673      -0.00123553      -0.00082499       0.00058952
Ti       3.97713739       0.94422928      18.87323498       0.00149750       0.00120122       0.00053257
Ti       2.33278152       8.40652256      19.61138205       0.00150172       0.00089376      -0.00133060
Ti       4.87116828       3.53502244      19.54857342       0.00067638       0.00401875       0.00251710
Ti       1.46700588       1.35377709      20.18345922      -0.00126399       0.00717146       0.00626414
Ti       4.03225282       6.18286147      20.24228379      -0.00104893      -0.00812863      -0.00394793
Ti       4.91111634       8.94301398      20.99770939      -0.00529223       0.00574734      -0.00161196
Ti       2.37415926       4.05301353      20.92224324       0.00348833      -0.00393705       0.00157256
Ti       3.81482629       1.87319200      21.70035666      -0.00312139       0.00462620       0.00268060
Ti       1.28070890       6.73180124      21.69453501       0.00112248      -0.00673116       0.00481862
