64
Lattice="5.088765 0.0 0.0 0.0 9.739025 0.0 0.0 0.0 22.303587" Properties=species:S:1:pos:R:3:forces:R:3 job_name=T2-Zn-Zn-34-d-0.63 GB_type=T2 element=Zn system=Zn-34-d-0.63 distance=0.63 energy=-488.88647521 stress_kbar_3x3="_JSON [[-3.61675698, -1.2587533, -2.71114741], [-1.25875325, -17.96924746, -3.15706591], [-2.71114748, -3.15706595, -18.0316104]]" pbc="T T T"
Ti       2.53244810       9.27361742      22.28509252       0.00080061      -0.00086239      -0.00433982
Ti       5.06709312       4.40337496      22.28166103       0.00196514      -0.00167124      -0.00097812
Ti       1.25830675       1.88401963       0.61274629      -0.00001178      -0.00006296       0.00045162
Ti       3.80454913       6.74914702       0.61005492      -0.00014609      -0.00207316      -0.00089472
Ti       2.73836794       4.06038376       1.40928401       0.00033026      -0.00219694      -0.00203087
Ti       0.19351229       8.92511230       1.39116014       0.00133704      -0.00218383       0.00225241
Ti       1.04005174       6.19375012       2.11232576      -0.00083334      -0.00009286      -0.00043936
Ti       3.58812412       1.33720745       2.11336436      -0.00031601       0.00041053      -0.00005676
Ti       0.23261466       3.48378334       2.77464709       0.00117885       0.00518035       0.00209114
Ti       2.77766896       8.35104922       2.76628312       0.00012168       0.00044316       0.00026239
Ti       1.12214822       0.86903268       3.50038814      -0.00062862       0.00393258       0.00058809
Ti       3.66978827       5.73410438       3.52294721      -0.00089779       0.00057887      -0.00099401
Ti       2.77657014       3.09922996       4.20130268      -0.00054466       0.00186090      -0.00137825
Ti       0.23194750       7.96821283       4.17312544      -0.00013974       0.00074442       0.00123329
Ti       3.64980100       0.44795599       4.86252771      -0.00027096       0.00235284      -0.00000037
Ti       1.10768151       5.30775160       4.86457693      -0.00059522       0.00211962       0.00102817
Ti       2.79002573       7.54632737       5.58570167      -0.00095454       0.00322790       0.00155975
Ti       0.24410335       2.67468009       5.58038615      -0.00156199       0.00271259       0.00326688
Ti       3.62898203       4.87428643       6.31884852       0.00187017      -0.00162295      -0.00126065
Ti       1.08668981       0.01091038       6.26584069      -0.00116687       0.00162379       0.00209813
Ti       0.25350251       7.08628406       6.94571493      -0.00252988      -0.00119295      -0.00010297
Ti       2.79233784       2.21686302       7.00547189      -0.00076116      -0.00129440      -0.00214082
Ti       1.12223649       4.43053769       7.68883985       0.00041729      -0.00224810      -0.00007004
Ti       3.67599489       9.31733646       7.69801073      -0.00076360       0.00112746       0.00055550
Ti       0.25708587       1.80735445       8.36920598      -0.00014928      -0.00035332       0.00113548
Ti       2.78605974       6.68142898       8.38160662      -0.00153611       0.00062146      -0.00119007
Ti       1.11170566       8.89733031       9.00880672       0.00052702      -0.00041818       0.00071208
Ti       3.66314974       4.00479105       9.09553323       0.00008316       0.00218628      -0.00013574
Ti       2.73650341       1.32897539       9.83521179      -0.00165608       0.00258039       0.00077879
Ti       0.26921675       6.25946973       9.69222515       0.00049771       0.00009646      -0.00126852
Ti       3.77371322       8.36862189      10.50857454       0.00153671      -0.00148110      -0.00107171
Ti       1.09165292       3.55372417      10.50484663       0.00187314      -0.00021331      -0.00272420
Ti       0.09595206       0.96019415      11.11651899       0.00053242      -0.00286166      -0.00063228
Ti       2.51583055       5.80000682      11.27828511      -0.00005473       0.00137906      -0.00127525
Zn       3.79448050       3.35884681      11.81073649      -0.00278655       0.00458911       0.00216605
Ti       1.23575746       8.25311544      11.74003377      -0.00145373       0.00084448      -0.00078442
Ti       2.36150893       1.09667606      12.65402870      -0.00281282       0.00038489      -0.00041186
Ti       5.02450460       5.92237773      12.42366260       0.00129397       0.00147944      -0.00007866
Ti       1.55254479       3.87916062      13.27364807       0.00094770      -0.00313611       0.00048233
Ti       4.09184706       8.81006864      13.24161010      -0.00114228      -0.00233266      -0.00058845
Ti       4.85350369       1.78165324      13.86979502       0.00078075      -0.00159057       0.00245814
Ti       2.26461161       6.66013637      13.91485337       0.00043525      -0.00032963      -0.00003229
Ti       1.39052917       9.27453392      14.72379416       0.00212812      -0.00080264      -0.00258719
Ti       3.93961183       4.43658061      14.58780084      -0.00141634      -0.00200591       0.00281046
Ti       4.84033487       7.03061190      15.33433646      -0.00085015      -0.00142642       0.00163305
Ti       2.27933889       2.16875967      15.36111525       0.00039700       0.00120235      -0.00034404
Ti       1.45232209       4.84618907      15.97479500       0.00286352       0.00008109      -0.00049366
Ti       3.97820217       9.72858864      15.96637416      -0.00019290      -0.00171325      -0.00060464
Ti       2.31126795       7.49196274      16.74588644       0.00110065      -0.00331319      -0.00111099
Ti       4.84185998       2.64341599      16.70704136       0.00131658      -0.00409379       0.00072843
Ti       3.99721713       5.29294301      17.43159568      -0.00050180      -0.00350524       0.00119568
Ti       1.45037059       0.42697989      17.46708985      -0.00031068       0.00000439      -0.00037167
Ti       4.85091250       7.97593243      18.09260186       0.00112999      -0.00106102      -0.00017770
Ti       2.29662563       3.10565114      18.11273374       0.00176398      -0.00167304      -0.00058211
Ti       1.40437891       5.72376371      18.79201729       0.00083940      -0.00213465       0.00279789
Ti       3.95270468       0.86789763      18.78580815      -0.00131055      -0.00064173      -0.00163192
Ti       2.28994856       8.36239178      19.54635493      -0.00173330      -0.00021646      -0.00112570
Ti       4.82646949       3.50378962      19.52912080       0.00049732      -0.00120796       0.00005633
Ti       1.49871139       1.36692725      20.17810329       0.00018662       0.00555337       0.00049820
Ti       4.04231085       6.23204680      20.16373412       0.00054682       0.00001899       0.00072447
Ti       4.92162338       8.98046306      20.91356853       0.00101349       0.00302673       0.00293227
Ti       2.37124476       4.11685668      20.92854292       0.00070327       0.00404261       0.00000702
Ti       3.79451743       1.91191383      21.68664155       0.00081775      -0.00045487      -0.00110894
Ti       1.24966033       6.77357031      21.69269280      -0.00180383      -0.00193764      -0.00148524
