64
Lattice="5.088765 0.0 0.0 0.0 9.739025 0.0 0.0 0.0 22.303587" Properties=species:S:1:pos:R:3:forces:R:3 job_name=T2-Zr-Zr-33-d-0.00 GB_type=T2 element=Zr system=Zr-33-d-0.00 distance=0.0 energy=-495.76167834 stress_kbar_3x3="_JSON [[5.55299806, -0.00193554, -1.2470148], [-0.00193554, -10.13893727, 0.00626037], [-1.24701479, 0.00626038, -9.5218149]]" pbc="T T T"
Ti       2.54454026       9.26520867       0.00000917       0.00015352      -0.00499016       0.00003248
Ti       0.00014172       4.39415703       0.00000252       0.00021997      -0.00173185      -0.00009380
Ti       1.27310044       1.88629032       0.61739704       0.00520815       0.00353192      -0.00587427
Ti       3.81952571       6.75625876       0.61506605       0.00071745       0.00192175      -0.00418241
Ti       2.71701595       4.07862860       1.38503954      -0.00265750       0.00209738      -0.00567709
Ti       0.17414670       8.95098685       1.38296023      -0.00072518      -0.00095597      -0.00039063
Ti       1.04595323       6.21584667       2.11122678       0.00310029      -0.00203049      -0.00363147
Ti       3.59136606       1.34827447       2.11077250       0.00133466      -0.00121851      -0.00019666
Ti       0.22889283       3.49780276       2.75742754      -0.00196957      -0.00304437       0.00039603
Ti       2.77396686       8.36974366       2.74939359       0.00146389      -0.00117657      -0.00555418
Ti       1.11760281       0.86912491       3.49555460      -0.00136644       0.00027740      -0.00197076
Ti       3.65857833       5.73710517       3.49077848       0.00349538      -0.00210527      -0.00526366
Ti       2.75950838       3.10194609       4.16926347       0.00308900      -0.00275811      -0.00237875
Ti       0.21677778       7.97344517       4.16134210       0.00188695       0.00230091      -0.00389339
Ti       3.63342139       0.43479449       4.84122007       0.00202303       0.00226421      -0.00249605
Ti       1.08647323       5.30231470       4.84417043       0.00375848      -0.00231816       0.00059717
Ti       2.76290643       7.53064556       5.54226280       0.00156271       0.00130973       0.00007136
Ti       0.21575468       2.65178818       5.56230268       0.00192047       0.00191601       0.00284286
Ti       3.61591817       4.85870268       6.26492733       0.00757833      -0.00011231       0.00287925
Ti       1.07579008       9.72486859       6.27355245      -0.00064479      -0.00047769       0.00265204
Ti       0.21332501       7.06376392       6.92393309      -0.00581400       0.00166699      -0.00093210
Ti       2.76322717       2.18569337       6.93523213      -0.00162220       0.00120948      -0.00146789
Ti       1.11634826       4.40585189       7.64921987       0.00303428      -0.00128452       0.00834548
Ti       3.65878251       9.29424638       7.64464551       0.00421352       0.00268205       0.00048078
Ti       0.22960693       1.76874340       8.36018457       0.00189996      -0.00540605       0.00176282
Ti       2.76422881       6.66188867       8.29338342      -0.00274642       0.00790585       0.00173803
Ti       1.09246906       8.81282316       9.02214956       0.00642728      -0.00408846       0.00608987
Ti       3.61916513       3.92342349       8.98854656      -0.00068457      -0.00361905       0.00566860
Ti       2.70419034       1.26087791       9.74827900       0.00181799       0.00024661       0.00512096
Ti       0.11472909       6.12733583       9.68526068      -0.00607890      -0.00116043      -0.00102849
Ti       3.82474644       8.38556588      10.46942387      -0.00179014       0.00246918      -0.00608208
Ti       1.24044201       3.41722770      10.50243564       0.00177585      -0.00264503       0.00014875
Ti       0.00004068       0.95270045      11.15167753       0.00004557       0.00671343       0.00010135
Zr       2.54432045       5.86768014      11.15156529      -0.00047769       0.00629534       0.00147109
Ti       3.84834018       3.41721988      11.80086441      -0.00148754      -0.00244898      -0.00003579
Ti       1.26419376       8.38575648      11.83404063       0.00197447       0.00135183       0.00580473
Ti       2.38475637       1.26085858      12.55513447      -0.00227434       0.00034819      -0.00535122
Ti       4.97383706       6.12744608      12.61805620       0.00653738      -0.00119056       0.00111572
Ti       1.46973112       3.92330925      13.31486316       0.00021823      -0.00263554      -0.00637405
Ti       3.99645863       8.81289534      13.28126528      -0.00680628      -0.00428782      -0.00585014
Ti       4.85923385       1.76871076      13.94326068      -0.00154649      -0.00498899      -0.00242658
Ti       2.32458098       6.66198569      14.01009695       0.00269070       0.00709497      -0.00269558
Ti       1.43004304       9.29429599      14.65875654      -0.00385738       0.00241678      -0.00031772
Ti       3.97254650       4.40581883      14.65411781      -0.00330932      -0.00105345      -0.00823291
Ti       4.87560426       7.06379203      15.37945833       0.00559619       0.00131382       0.00068365
Ti       2.32565947       2.18560755      15.36812198       0.00185830       0.00139026       0.00177126
Ti       1.47293172       4.85859010      16.03845872      -0.00726906       0.00018077      -0.00315478
Ti       4.01312427       9.72484233      16.02981407       0.00028190      -0.00068345      -0.00258213
Ti       2.32594997       7.53060322      16.76102491      -0.00135397       0.00120024       0.00005033
Ti       4.87310651       2.65173589      16.74099163      -0.00182759       0.00158988      -0.00287443
Ti       4.00241259       5.30222464      17.45914455      -0.00389759      -0.00237814      -0.00071829
Ti       1.45547886       0.43469754      17.46212659      -0.00224631       0.00248781       0.00286088
Ti       4.87207986       7.97333310      18.14198440      -0.00186637       0.00261944       0.00417501
Ti       2.32931404       3.10187221      18.13412378      -0.00291482      -0.00300376       0.00245303
Ti       1.43032329       5.73709171      18.81251979      -0.00334295      -0.00210254       0.00545382
Ti       3.97131806       0.86907999      18.80776976       0.00138044       0.00050744       0.00221516
Ti       2.31502702       8.36961346      19.55397592      -0.00127185      -0.00140389       0.00519946
Ti       4.86009183       3.49770359      19.54589827       0.00191692      -0.00337155      -0.00015039
Ti       1.49754913       1.34808560      20.19271632      -0.00126881      -0.00143352       0.00019724
Ti       4.04294847       6.21555700      20.19214337      -0.00283391      -0.00175399       0.00395141
Ti       4.91464129       8.95064932      20.92022114       0.00055266      -0.00071991       0.00046287
Ti       2.37174489       4.07830254      20.91817286       0.00244874       0.00204187       0.00579827
Ti       3.81594889       1.88614133      21.68607408      -0.00529379       0.00357004       0.00533966
Ti       1.26959343       6.75610920      21.68825718      -0.00093690       0.00165753       0.00394625
