64
Lattice="5.088765 0.0 0.0 0.0 9.739025 0.0 0.0 0.0 22.303587" Properties=species:S:1:pos:R:3:forces:R:3 job_name=T2-Zr-Zr-48-d-5.58 GB_type=T2 element=Zr system=Zr-48-d-5.58 distance=5.58 energy=-495.82732307 stress_kbar_3x3="_JSON [[6.21360244, 0.00464003, 0.00414636], [0.00464005, -10.79076171, -0.68703654], [0.00414635, -0.68703655, -10.24059415]]" pbc="T T T"
Ti       2.52384126       9.26501864       0.03370280      -0.00802360       0.00251164      -0.00573129
Ti       5.08194393       4.39296089      22.30137497       0.00023275       0.00550881      -0.00820765
Ti       1.26075146       1.88912113       0.63077160      -0.00424524      -0.00150140      -0.00107080
Ti       3.81088500       6.74562836       0.62554282      -0.00809014       0.00896514       0.00026239
Ti       2.71914784       4.07117758       1.41447630       0.00588150      -0.00365094       0.00721050
Ti       0.15814126       8.93761207       1.41482865       0.00766846      -0.00600268       0.00465620
Ti       1.03507134       6.21488901       2.12998594      -0.00148392       0.00078462       0.00172200
Ti       3.58369038       1.34120581       2.13287762      -0.00290283      -0.00188107       0.00330075
Ti       0.21786536       3.50020864       2.77423863       0.00040068       0.00186807       0.00853894
Ti       2.76216450       8.35761656       2.77640463       0.00140767      -0.00271118       0.00105239
Ti       1.11141803       0.87275840       3.50353131      -0.00307751      -0.00016128       0.00409311
Ti       3.65550523       5.74036709       3.51349656      -0.00360999       0.00085544       0.00543960
Ti       2.75471797       3.10529848       4.19239344       0.00135899       0.00477592       0.00501720
Ti       0.20745904       7.97909215       4.19683650       0.00207246      -0.00390290       0.00507444
Ti       3.61447099       0.43762435       4.85645963      -0.00095335      -0.00088148       0.00495517
Ti       1.07332421       5.30584769       4.85753935      -0.00494204      -0.00004840      -0.00144001
Ti       2.74896568       7.52288618       5.57583176      -0.00239476      -0.00031159      -0.00072681
Ti       0.20832440       2.65331290       5.57571820      -0.00320045       0.00030958      -0.00005432
Ti       3.61485732       4.86972306       6.29499480      -0.00152914       0.00049252      -0.00527497
Ti       1.07367418       0.00155297       6.29389840      -0.00511646      -0.00023116       0.00059357
Ti       0.20737716       7.06738647       6.95489609       0.00194328       0.00234471      -0.00596562
Ti       2.75457683       2.20204928       6.95911466       0.00084256      -0.00419644      -0.00520902
Ti       1.11153049       4.43493578       7.64778153      -0.00372649      -0.00003188      -0.00375905
Ti       3.65560979       9.30621652       7.63781233      -0.00400050      -0.00070478      -0.00533819
Ti       0.21805781       1.80739459       8.37699378       0.00032454      -0.00116682      -0.00784005
Ti       2.76237283       6.68889996       8.37524882       0.00171133       0.00156755      -0.00058513
Ti       1.03502952       8.83146094       9.02161188      -0.00203227      -0.00151039      -0.00107365
Ti       3.58335857       3.96605314       9.01861320      -0.00244502       0.00206628      -0.00201575
Ti       2.71915210       1.23595425       9.73716297       0.00554944       0.00407361      -0.00622064
Ti       0.15822150       6.10856162       9.73717757       0.00738748       0.00490493      -0.00344310
Ti       3.81089637       8.30029566      10.52606956      -0.00721568      -0.00953517       0.00056275
Ti       1.26081687       3.41772424      10.52123088      -0.00473601       0.00183265       0.00146995
Ti       5.08179094       0.91375592      11.15364301       0.00038344      -0.00370806       0.00749386
Ti       2.52398333       5.78123072      11.11806190      -0.00774714      -0.00198464       0.00612177
Ti       3.80665535       3.42502660      11.74139236      -0.00144954      -0.01297228      -0.00011452
Ti       1.26006102       8.28147467      11.74068234       0.00106526      -0.01266832       0.00198040
Ti       2.39302751       1.22735271      12.49937815       0.00560904      -0.01050149       0.00465143
Ti       4.91632528       6.06293849      12.50382612       0.01050116      -0.00991999      -0.00794789
Ti       1.51914462       3.93458316      13.25933679       0.00332009      -0.01019615       0.00938584
Ti       4.03422423       8.83610664      13.26368546       0.00001445      -0.00725931       0.00990123
Ti       4.85620943       1.82404890      13.89143450      -0.00218582      -0.00052475       0.00622012
Ti       2.30990247       6.63681640      13.83470589      -0.00774791      -0.00552142      -0.00511725
Ti       1.43021437       9.32624885      14.56319920      -0.00182150       0.00874420      -0.00548044
Ti       3.96597203       4.43120533      14.66162661      -0.00376718      -0.00607037       0.01016164
Ti       4.88978385       7.05085992      15.25983093       0.00377601      -0.00705089      -0.00157215
Ti       2.33994815       2.16029059      15.33975977      -0.00005699      -0.00757218       0.01307496
Ti       1.47416518       4.81190861      15.96125749       0.00101753      -0.01718697      -0.00290249
Ti       4.11336727       0.02888364      15.98895812       0.01231985       0.01524388      -0.00023974
Zr       2.33666304       7.52532717      16.72740500      -0.00427814      -0.00118167       0.00086342
Ti       4.87908750       2.65417062      16.72744528       0.00605032       0.00038688       0.00035515
Ti       4.11228283       5.27976278      17.46611884       0.01255990      -0.01525953       0.00151409
Ti       1.47337317       0.49738879      17.49464775       0.00097823       0.01726306       0.00372822
Ti       4.88991293       7.99637462      18.19570494       0.00385307       0.00648066       0.00165181
Ti       2.34005877       3.14750927      18.11510240       0.00028368       0.00877907      -0.01255013
Ti       1.43076395       5.72073635      18.89073760      -0.00166715      -0.00922010       0.00463705
Ti       3.96566604       0.87672756      18.79325440      -0.00466812       0.00614922      -0.01087303
Ti       2.30978860       8.40985556      19.62087999      -0.00704079       0.00539335       0.00365847
Ti       4.85635940       3.48371111      19.56329534      -0.00219799       0.00211167      -0.00695657
Ti       1.51910956       1.37374192      20.19638265       0.00473197       0.01123413      -0.01067895
Ti       4.03493366       6.21071367      20.19169455      -0.00031893       0.00658897      -0.01079755
Ti       4.91649932       8.98411860      20.95170875       0.00994976       0.00964960       0.00693910
Ti       2.39375200       4.08058911      20.95552610       0.00583638       0.01083595      -0.00465084
Ti       3.80673108       1.88243465      21.71380766      -0.00146614       0.01331891      -0.00113459
Ti       1.26012619       6.76490739      21.71453978       0.00110748       0.01218666      -0.00131530
