64
Lattice="5.088765 0.0 0.0 0.0 9.739025 0.0 0.0 0.0 22.303587" Properties=species:S:1:pos:R:3:forces:R:3 job_name=T2-Zr-Zr-42-d-3.50 GB_type=T2 element=Zr system=Zr-42-d-3.50 distance=3.5 energy=-495.86192296 stress_kbar_3x3="_JSON [[6.16845044, -4.17126371, 0.17597985], [-4.1712637, -9.38443175, -2.9998701], [0.17597987, -2.99987012, -7.5823438]]" pbc="T T T"
Ti       2.55912274       9.28517469       0.03249166       0.00289256       0.00457749       0.00366399
Ti       0.01061286       4.41624445       0.02841692       0.00301647      -0.00034852       0.00648456
Ti       1.28097816       1.91508840       0.63326124       0.00320106       0.00525203       0.00078795
Ti       3.82156403       6.78374698       0.61825957       0.00582246       0.00918625       0.00099780
Ti       2.70963585       4.11770965       1.38813953      -0.00783624       0.01567429       0.00282657
Ti       0.15811309       8.98623245       1.37971302      -0.00516815       0.01879139      -0.00150232
Ti       1.04954815       6.26205239       2.12778849       0.00058555       0.00916850       0.00986130
Ti       3.60057067       1.39163944       2.13535692      -0.00076179       0.01116735       0.00820268
Ti       0.23278658       3.54889541       2.76911799       0.00096214       0.00581169       0.00576986
Ti       2.77556744       8.41618105       2.76477565       0.00101407       0.00487691       0.00475067
Ti       1.11902919       0.91222751       3.48571220       0.00059737       0.00339807       0.00417070
Ti       3.66180181       5.78443388       3.48490567       0.00268748      -0.00038972       0.00378006
Ti       2.74442826       3.16853785       4.18118849      -0.00275204       0.00263516       0.00137532
Ti       0.19874992       8.03783668       4.18069645      -0.00367548       0.00325603       0.00284779
Ti       3.60987917       0.50387389       4.85123297       0.00023202       0.00480968       0.00296404
Ti       1.06361120       5.37468335       4.85081679       0.00078727       0.00212117       0.00103752
Ti       2.76824876       7.57464286       5.53651243       0.00028053       0.00342295       0.00074135
Ti       0.22465160       2.70596884       5.53790970       0.00094762      -0.00063881       0.00135534
Ti       3.62260103       4.91870285       6.28836710       0.00120704       0.00155396      -0.00139953
Ti       1.08312526       0.04638300       6.28998854       0.00216235       0.00180394       0.00320805
Ti       0.21116199       7.13059905       6.97743301       0.00185131       0.00487221       0.00230690
Ti       2.75820105       2.26578466       6.96920300       0.00133901      -0.00217491       0.00190342
Ti       1.11490851       4.48626836       7.60701516       0.00012338      -0.00178755      -0.00000745
Ti       3.66199580       9.35324119       7.59700264       0.00300932       0.00239203       0.00117806
Ti       0.16461793       1.90992119       8.33189658       0.00197248      -0.00673943      -0.00263916
Ti       2.70060120       6.78351913       8.33769506       0.00197446       0.00191679      -0.00077510
Ti       0.99932721       8.97798391       9.04512379       0.00429895       0.00303835      -0.00673571
Ti       3.54090354       4.11635250       9.03538611       0.00360994      -0.00260444      -0.00465869
Ti       2.85330743       1.31524060       9.65136373       0.00020249      -0.00230533      -0.01318092
Ti       0.27924285       6.17765762       9.67458178      -0.00130277       0.00106182      -0.00391618
Ti       3.76446844       8.28363783      10.51850325      -0.00148879      -0.00097380      -0.01094173
Ti       1.22787141       3.40098009      10.53389020       0.00105904      -0.00094760      -0.00511428
Ti       5.06831506       0.80994427      11.29581689       0.00090443       0.00058680      -0.00998844
Ti       2.50491612       5.68520499      11.26896836       0.00311672      -0.00220412      -0.00231051
Ti       3.78657466       3.25950982      11.65396356       0.00104755       0.00497428       0.00063835
Ti       1.23143760       8.09895056      11.67526713       0.00272385      -0.00369375       0.00545319
Ti       2.51878446       1.01102462      12.34376125      -0.00464358      -0.00204916       0.00053583
Ti       5.04304358       5.80780474      12.42286486       0.00036498      -0.00136408       0.00922744
Ti       1.60584834       3.71403694      13.28468624      -0.00197661       0.00911287       0.00652245
Ti       4.07207769       8.57227390      13.23081854      -0.00289723      -0.01097099       0.00730034
Ti       4.66550181       1.82380398      13.92798358       0.00556004      -0.00021000       0.00838358
Ti       2.18963830       6.55163285      13.91791749       0.00052740      -0.00207675       0.00768472
Zr       1.42463820       9.38329924      14.61642878       0.00033962       0.00283045       0.00137240
Ti       3.97989607       4.46905513      14.65928557      -0.00133902       0.00344910       0.00495571
Ti       4.83929489       7.03567100      15.42796005       0.00334748      -0.00616495       0.00120884
Ti       2.38472299       2.24513483      15.48566878      -0.00135631       0.00310971       0.00642650
Ti       1.45569058       4.85021456      16.00923157      -0.00005719      -0.00000415      -0.00280005
Ti       3.99794462       9.71422697      16.07035822      -0.00105875      -0.00931401       0.00459779
Ti       2.34093053       7.46848519      16.75159656      -0.00549692      -0.00858233      -0.00218973
Ti       4.91546879       2.62329546      16.71426850      -0.00379382       0.00230515       0.00309489
Ti       4.02088150       5.24704711      17.48072751      -0.00038742      -0.00514154      -0.00431154
Ti       1.48742042       0.40567719      17.53949189      -0.00240297      -0.00922637       0.00329222
Ti       4.84865592       7.95474515      18.14657195      -0.00381552      -0.00711692       0.00308287
Ti       2.30380893       3.10906698      18.16841410      -0.00182366      -0.00236352       0.00176116
Ti       1.43127842       5.74116196      18.82242078      -0.00349916      -0.00132288      -0.00807970
Ti       3.98613413       0.88316692      18.82799108      -0.00176029      -0.00312845      -0.00139404
Ti       2.33293490       8.36443831      19.57254584       0.00103471      -0.00483144      -0.00715266
Ti       4.88130312       3.49400776      19.57656582       0.00122911      -0.00606090      -0.00608323
Ti       1.51884829       1.34359094      20.22291517      -0.00150909      -0.01163996      -0.00408649
Ti       4.05180678       6.20829429      20.19964734      -0.00200372      -0.00965149      -0.00837841
Ti       4.91077538       8.94883145      20.91170128      -0.00595095      -0.00623657      -0.01392989
Ti       2.37142394       4.08630668      20.92204892      -0.00878235      -0.00913793      -0.01089603
Ti       3.82731243       1.90127648      21.71116755       0.00667515      -0.00661685      -0.00545761
Ti       1.27579570       6.76803772      21.70125907       0.00483243       0.00086281      -0.00782282
