64
Lattice="5.088765 0.0 0.0 0.0 9.739025 0.0 0.0 0.0 22.303587" Properties=species:S:1:pos:R:3:forces:R:3 job_name=T2-Zr-Zr-32-d-0.00 GB_type=T2 element=Zr system=Zr-32-d-0.00 distance=0.0 energy=-495.76204221 stress_kbar_3x3="_JSON [[5.69865378, -0.00124733, -1.29248609], [-0.00124736, -10.03698112, 0.00688948], [-1.29248608, 0.00688952, -9.49483762]]" pbc="T T T"
Ti       2.54456979       9.26378592       0.00007064      -0.00011642       0.00374539      -0.00007396
Ti       0.00005995       4.39712070       0.00008632       0.00039678      -0.00333266      -0.00011102
Ti       1.27540953       1.88795299       0.61489795       0.00179356      -0.00133785      -0.00172884
Ti       3.81806118       6.75746900       0.61700276       0.00309256       0.00036874      -0.00297907
Ti       2.71940223       4.08290026       1.38370681      -0.00104084      -0.00311495      -0.00014715
Ti       0.17294946       8.94852147       1.38504461      -0.00148335       0.00281145      -0.00099703
Ti       1.04702004       6.21802774       2.11125721      -0.00066991      -0.00202520      -0.00023562
Ti       3.59037379       1.34583908       2.11193069       0.00305704      -0.00126971      -0.00063982
Ti       0.23044167       3.49997758       2.74994377      -0.00169439      -0.00254194      -0.00358793
Ti       2.77368698       8.36617194       2.75819620      -0.00187861       0.00072858      -0.00060122
Ti       1.11514915       0.86642808       3.49141606       0.00524942      -0.00004028      -0.00390332
Ti       3.66238022       5.73856344       3.49604889       0.00300951      -0.00210278       0.00073801
Ti       2.76155132       3.10380195       4.16146489       0.00316267       0.00067472      -0.00420289
Ti       0.21554024       7.97031579       4.16918258       0.00281497       0.00190222      -0.00133176
Ti       3.63249729       0.43179821       4.84449073       0.00350876       0.00070121       0.00017332
Ti       1.09034734       5.30438872       4.84109416      -0.00022536       0.00041119      -0.00104526
Ti       2.76089647       7.52141947       5.56238420       0.00246319      -0.00109805       0.00387396
Ti       0.21908323       2.66086153       5.54240483       0.00181062       0.00400499      -0.00329469
Ti       3.62087669       4.85495300       6.27379892       0.00058087      -0.00127686      -0.00139328
Ti       1.07330461       9.72745594       6.26482395       0.00232467      -0.00001396       0.00196977
Ti       0.21913059       7.05505408       6.93491995       0.00056930       0.00006413      -0.00191797
Ti       2.75763058       2.19380075       6.92376058      -0.00348106       0.00427243      -0.00402044
Ti       1.11572893       4.42432098       7.64468911       0.00227813       0.00552294      -0.00097313
Ti       3.66193769       9.27439893       7.64949597       0.00381497      -0.00004302       0.00386854
Ti       0.21936583       1.79270771       8.29226903      -0.00273878       0.00309580       0.00252848
Ti       2.77450113       6.63755678       8.35916283       0.00121468      -0.00676232       0.00083489
Ti       1.07670866       8.79187818       8.98814353      -0.00091980      -0.00130956       0.00497539
Ti       3.63878565       3.94336384       9.02194527       0.00594861      -0.00040331       0.00551204
Ti       2.65931555       1.25917708       9.68324568      -0.00299117      -0.00226603       0.00657361
Ti       0.16028875       6.13138389       9.74796823       0.00172248      -0.00228875       0.00312092
Ti       3.78449202       8.28644481      10.50032723       0.00305249       0.00165780       0.00253552
Ti       1.28050348       3.51767617      10.46787191      -0.00662645      -0.00033987      -0.00141165
Zr       0.00012421       0.99714076      11.15169148       0.00002332       0.00560581       0.00119005
Ti       2.54441675       5.82445020      11.15169481       0.00026534      -0.00225900      -0.00007702
Ti       3.80844994       3.51776619      11.83556563       0.00667442      -0.00013574       0.00113050
Ti       1.30452240       8.28638387      11.80297860      -0.00340260       0.00221987      -0.00267341
Ti       2.42956363       1.25946302      12.62022408       0.00283617      -0.00279703      -0.00702878
Ti       4.92858448       6.13142937      12.55543857      -0.00196723      -0.00217040      -0.00315013
Ti       1.45008461       3.94351832      13.28147825      -0.00584927      -0.00064455      -0.00541158
Ti       4.01213438       8.79186367      13.31520463       0.00119792      -0.00129422      -0.00487051
Ti       4.86953667       1.79288129      14.01124020       0.00287748       0.00267873      -0.00280571
Ti       2.31437420       6.63750018      13.94422338      -0.00104359      -0.00658522      -0.00082864
Ti       1.42692398       9.27431823      14.65381181      -0.00379081       0.00025193      -0.00391118
Ti       3.97313491       4.42438151      14.65875830      -0.00240262       0.00551537       0.00063903
Ti       4.86975864       7.05492859      15.36847193      -0.00049210       0.00060375       0.00153642
Ti       2.33128239       2.19383901      15.37966631       0.00368106       0.00408636       0.00410883
Ti       1.46800265       4.85488770      16.02951011      -0.00082097      -0.00127001       0.00158413
Ti       4.01559883       9.72737587      16.03857802      -0.00255867       0.00005347      -0.00239211
Ti       2.32791814       7.52130322      16.74083573      -0.00238566      -0.00096387      -0.00376033
Ti       4.86977783       2.66089739      16.76091651      -0.00159179       0.00378567       0.00321747
Ti       3.99850087       5.30428905      17.46213464       0.00019991       0.00067542       0.00133052
Ti       1.45634531       0.43170652      17.45882372      -0.00362055       0.00055669      -0.00024163
Ti       4.87320302       7.97022671      18.13413858      -0.00241802       0.00154669       0.00113127
Ti       2.32727057       3.10371915      18.14178985      -0.00303624       0.00075874       0.00478970
Ti       1.42650796       5.73854503      18.80712432      -0.00293429      -0.00224958      -0.00037329
Ti       3.97375182       0.86641621      18.81180534      -0.00539071       0.00012687       0.00414157
Ti       2.31528772       8.36598771      19.54510798       0.00180423       0.00060394       0.00067112
Ti       4.85852188       3.49979855      19.55332041       0.00177528      -0.00238073       0.00415737
Ti       1.49855475       1.34554921      20.19150029      -0.00309297      -0.00095024       0.00070323
Ti       4.04185760       6.21784647      20.19219256       0.00070948      -0.00246872       0.00019532
Ti       4.91571543       8.94814618      20.91815475       0.00127198       0.00290181       0.00104944
Ti       2.36923720       4.08253612      20.91960975       0.00056828      -0.00334719      -0.00031384
Ti       3.81369921       1.88778901      21.68852738      -0.00204833      -0.00123596       0.00159342
Ti       1.27094025       6.75728438      21.68649644      -0.00303758       0.00038686       0.00256036
