64
Lattice="5.088765 0.0 0.0 0.0 9.739025 0.0 0.0 0.0 22.303587" Properties=species:S:1:pos:R:3:forces:R:3 job_name=T2-Zn-Zn-42-d-3.50 GB_type=T2 element=Zn system=Zn-42-d-3.50 distance=3.5 energy=-488.87665475 stress_kbar_3x3="_JSON [[-2.23563328, -1.62165437, 0.19355671], [-1.6216544, -18.73960964, -4.27158064], [0.19355665, -4.27158063, -18.75557973]]" pbc="T T T"
Ti       2.53164113       9.27023649       0.00005896       0.00128193       0.00116344       0.00034621
Ti      -0.00192256       4.39759437      22.30350730      -0.00420728      -0.00187422      -0.00432892
Ti       1.26456234       1.89928816       0.59483566       0.00294051       0.00531577       0.00126747
Ti       3.80970753       6.76588972       0.60747301       0.00132569      -0.00304946      -0.00320233
Ti       2.70024293       4.09702132       1.37872070      -0.00180077      -0.00229370      -0.00603846
Ti       0.15421425       8.96650633       1.38647950      -0.00002417       0.00141494      -0.00661848
Ti       1.02685975       6.23682473       2.12287853      -0.00175779      -0.00296469      -0.00656956
Ti       3.56500956       1.36714468       2.12030332      -0.00027068       0.00573722      -0.00811525
Ti       0.21645836       3.51402471       2.75553108       0.00286993       0.00165039      -0.00657475
Ti       2.76007121       8.38478615       2.76147678       0.00118518       0.00165070      -0.00361896
Ti       1.09994252       0.89213676       3.50829044      -0.00234518       0.00410297      -0.00667408
Ti       3.64210627       5.75833079       3.50246308       0.00155568      -0.00149462      -0.00155483
Ti       2.73859576       3.13733124       4.18750209       0.00173061       0.00539532      -0.00002145
Ti       0.19421368       8.00509873       4.19184883       0.00096601      -0.00341415       0.00011268
Ti       3.60440766       0.47000614       4.86155033      -0.00090466       0.00164029      -0.00138439
Ti       1.05912807       5.34184791       4.85615919      -0.00102861      -0.00115937       0.00274247
Ti       2.73961492       7.56449696       5.57258731      -0.00012115      -0.00236693       0.00120076
Ti       0.19650839       2.69535904       5.56178475       0.00222206       0.00574195       0.00110267
Ti       3.59778485       4.91067087       6.30712843      -0.00243650      -0.00024438       0.00004818
Ti       1.04706836       0.03395035       6.31235547      -0.00040326       0.00530948       0.00203562
Ti       0.20616829       7.11265564       6.97496268       0.00130965      -0.00064083       0.00882609
Ti       2.75240903       2.24195548       6.97021039       0.00026829       0.00857448       0.00324465
Ti       1.09742840       4.46660082       7.65995376       0.00189064       0.00642084       0.00504401
Ti       3.63431292       9.32493438       7.67819712       0.00164913       0.00366853       0.00584316
Ti       0.17073817       1.88204638       8.38312953      -0.00296399       0.00400355       0.00171687
Ti       2.71323316       6.74307522       8.39810420      -0.00070008      -0.00080606      -0.00093202
Ti       1.01737665       8.92943233       9.07631823      -0.00397505      -0.00344150       0.00639374
Ti       3.57754487       4.07230252       9.06430359      -0.00276063       0.00219035       0.00711936
Ti       2.73884380       1.36427348       9.70748794      -0.00077466      -0.00057077       0.00604916
Ti       0.20048854       6.24773123       9.72681801      -0.00167809      -0.00770039       0.00253554
Ti       3.70298536       8.39251913      10.60232917       0.00044259      -0.00297064       0.00103112
Ti       1.22624057       3.50362540      10.54959510       0.00440670       0.00291743      -0.00140789
Ti       5.04580500       0.94426619      11.18345495      -0.00222939       0.00079435      -0.00074625
Ti       2.49251359       5.80607506      11.25484005      -0.00475013      -0.00351313      -0.00026197
Ti       3.77793552       3.35931471      11.74765550      -0.00230011       0.00349970      -0.00140996
Ti       1.18877643       8.24210038      11.80015609       0.00095779      -0.00505421      -0.00401947
Ti       2.47132173       1.07603177      12.49558004       0.00260704       0.00015252      -0.00458922
Ti       5.03147081       5.93134573      12.48173129       0.00141054       0.00393350      -0.01115043
Ti       1.55511917       3.81219340      13.31116160       0.00163937       0.00247459      -0.00780292
Ti       4.09212258       8.71444057      13.33848853       0.00113597       0.00041288      -0.00479995
Ti       4.92238866       1.75968403      13.90368519       0.00421603      -0.00048363      -0.00321321
Ti       2.27743594       6.60429405      13.93539300      -0.00635438      -0.00236124      -0.00859360
Zn       1.51697520       9.24213151      14.62930608       0.00185233      -0.00623893      -0.00404589
Ti       3.98790788       4.43162442      14.64946512       0.00266998       0.00105662      -0.00697371
Ti       4.95637790       7.04038602      15.40364804       0.00293820      -0.00104832       0.00244683
Ti       2.41190967       2.10289944      15.31548620      -0.00649500       0.00110828      -0.00203906
Ti       1.50355328       4.82972590      15.98819241      -0.00172113      -0.00042709      -0.00266512
Ti       4.11866936       9.69271570      15.99314837       0.00410062       0.00073406       0.00061466
Ti       2.38915611       7.49336401      16.68668465      -0.00135892      -0.00424363      -0.00084680
Ti       4.89698872       2.64467857      16.70172642      -0.00177033       0.00088121       0.00188116
Ti       4.02380792       5.26337478      17.45010091       0.00047989      -0.00557710       0.00459140
Ti       1.45207349       0.38719489      17.41659120       0.00302396      -0.00183018      -0.00292257
Ti       4.86510367       7.92469747      18.14250108       0.00005607      -0.00367713       0.00191552
Ti       2.33037755       3.06992393      18.09986931       0.00155134       0.00102931       0.00188973
Ti       1.45291378       5.71623604      18.76107341       0.00007290      -0.00600695       0.00499854
Ti       3.99140538       0.83703067      18.74639546      -0.00342805       0.00216345       0.00404996
Ti       2.31413327       8.34852017      19.53425467      -0.00076303      -0.00158428       0.00634768
Ti       4.86868380       3.45991430      19.54210296      -0.00069754      -0.00067514       0.01071906
Ti       1.52474524       1.33026653      20.16038623       0.00476059       0.00299853       0.01029832
Ti       4.05959506       6.19742152      20.18347485       0.00113469      -0.00572572       0.00620032
Ti       4.90166309       8.96058887      20.91155059      -0.00018993      -0.00286504       0.00378460
Ti       2.36879589       4.07430073      20.89091204       0.00278030      -0.00181062       0.00874005
Ti       3.80876438       1.88515136      21.68418926      -0.00144854       0.00311651      -0.00278498
Ti       1.26186249       6.75906959      21.68009690      -0.00177321      -0.00313911       0.00076890
