64
Lattice="5.088765 0.0 0.0 0.0 9.739025 0.0 0.0 0.0 22.303587" Properties=species:S:1:pos:R:3:forces:R:3 job_name=T2-Zn-Zn-38-d-2.12 GB_type=T2 element=Zn system=Zn-38-d-2.12 distance=2.12 energy=-488.9065976 stress_kbar_3x3="_JSON [[-4.02577088, 0.01498367, -1.20949857], [0.01498367, -18.98730661, -0.15349668], [-1.20949863, -0.1534967, -20.71725552]]" pbc="T T T"
Ti       2.54165724       9.25651124      22.30144040       0.00201302      -0.00073713      -0.00012594
Ti       5.08712345       4.38288994      22.29962490      -0.00077169       0.00197516       0.00258393
Ti       1.27134893       1.88407031       0.61959859       0.00108888       0.00085269      -0.01074150
Ti       3.81585590       6.74977125       0.61918134       0.00080657       0.00523366      -0.00740467
Ti       2.71101297       4.08282664       1.39360291      -0.00318561       0.00184302      -0.01287720
Ti       0.16714343       8.94817947       1.38680436      -0.00368114       0.00039093      -0.01045880
Ti       1.04093377       6.21961596       2.12205609      -0.00178979       0.00642630      -0.00931147
Ti       3.58753010       1.35501543       2.12234687      -0.00200465      -0.00092624      -0.00888741
Ti       0.22426229       3.50564946       2.76898836       0.00176907       0.00204533      -0.00618231
Ti       2.77092418       8.37421955       2.76738492       0.00201464       0.00114913      -0.00736043
Ti       1.10597768       0.87688935       3.50096440       0.00069609      -0.00131924      -0.00496604
Ti       3.65160079       5.74296132       3.51331651      -0.00008119       0.00092053      -0.00321591
Ti       2.75792759       3.10887656       4.19465947      -0.00020998       0.00290734       0.00231805
Ti       0.21856876       7.97682083       4.18386367       0.00082617       0.00044012      -0.00421860
Ti       3.61440064       0.44008691       4.86367439       0.00285012       0.00131104      -0.00299732
Ti       1.07135638       5.30440348       4.86922486       0.00300871       0.00096821       0.00078676
Ti       2.76266652       7.52468932       5.58393375      -0.00196250       0.00185101      -0.00101319
Ti       0.21054045       2.65251015       5.58329929       0.00150936      -0.00184585      -0.00198700
Ti       3.61498499       4.85888503       6.31715240       0.00015402      -0.00281084       0.00466637
Ti       1.07080182       9.73626763       6.29311709       0.00102768      -0.00017722      -0.00065023
Ti       0.21366339       7.07057610       6.96198035       0.00084986      -0.00371414       0.00078296
Ti       2.75202963       2.20463062       6.98423188       0.00108673      -0.00058096       0.00021479
Ti       1.09926544       4.42158531       7.67358832      -0.00328798      -0.00029432       0.00339649
Ti       3.65530352       9.31159282       7.67145195       0.00152066       0.00142550       0.00746284
Ti       0.22112907       1.79941468       8.39455117       0.00284984      -0.00341244       0.00707608
Ti       2.77534865       6.66751214       8.37705144       0.00406821      -0.00147281       0.00636546
Ti       1.07109767       8.82757766       9.02416195      -0.00246509      -0.00369287       0.01501741
Ti       3.57585664       3.94970682       9.10124560       0.00022255       0.00149649       0.00558271
Ti       2.68265057       1.24217930       9.80700063       0.00243468      -0.00400086       0.01055625
Ti       0.18241835       6.11647744       9.75032268       0.00278563       0.00342034       0.00938536
Ti       3.83554737       8.29628319      10.52439933       0.00558929       0.00051865       0.00133391
Ti       1.19942787       3.44664968      10.55656329      -0.00083218      -0.00193405      -0.00450696
Ti       0.02482236       0.91517420      11.14932863       0.00427415      -0.00411859       0.00127421
Ti       2.56253489       5.79557791      11.15540767       0.00116036       0.00898876      -0.01046943
Ti       3.81147894       3.45616415      11.86445838       0.00249105      -0.00632770      -0.00930664
Ti       1.30191815       8.28471711      11.78867089      -0.00262895       0.00710573      -0.01101699
Ti       2.41287284       1.24537005      12.56993496       0.00003207      -0.00940388      -0.00992292
Ti       4.93924098       6.15645484      12.52214365      -0.00208670       0.00650399      -0.01508999
Zn       1.46350626       3.97384632      13.24825879       0.00400871       0.00074869      -0.00126567
Ti       4.01863787       8.84325811      13.27223935       0.00128026       0.00223281      -0.01486718
Ti       4.93435758       1.78691883      13.96609180      -0.00106612      -0.00448178      -0.00532243
Ti       2.32256147       6.60366102      13.90727077      -0.00097191       0.00427079      -0.00649644
Ti       1.45097983       9.32016487      14.61571986      -0.00146322      -0.00403650      -0.00341809
Ti       4.04829674       4.43253030      14.61709352       0.00487639       0.00155300       0.00679222
Ti       4.86418542       7.08148550      15.32779314       0.00235460       0.00556305       0.00349362
Ti       2.38300188       2.20986096      15.29427396       0.00075098      -0.00168938      -0.00183236
Ti       1.43525462       4.84882354      15.97966663      -0.00529104       0.00466748       0.01580927
Ti       4.01108914       9.73367196      16.01685641       0.00063205      -0.00292887       0.00118238
Ti       2.30805499       7.51193951      16.70773336       0.00153409       0.00283675       0.00030752
Ti       4.85785586       2.64107251      16.73674934      -0.00158475      -0.00097366       0.00186017
Ti       4.00273646       5.30391001      17.40150988      -0.00093811      -0.00295173      -0.00295366
Ti       1.47432063       0.44430336      17.40652953      -0.00383125      -0.00094711       0.00025897
Ti       4.86983405       7.97171511      18.11749569      -0.00695580      -0.00170736       0.00245215
Ti       2.32384354       3.11303680      18.10731216      -0.00291027      -0.00210740       0.00274884
Ti       1.43131168       5.74479500      18.78616718      -0.00146879      -0.00251064       0.00126419
Ti       3.98093216       0.87570835      18.80487419      -0.00020809       0.00140215       0.00561679
Ti       2.31682607       8.37973329      19.50850360      -0.00143745      -0.00021894       0.00862868
Ti       4.86131901       3.50894811      19.53166692      -0.00270995      -0.00003921       0.00814480
Ti       1.48610339       1.34531831      20.16992306       0.00033788       0.00032760       0.00838881
Ti       4.02584723       6.20838058      20.16794552      -0.00039399      -0.00499949       0.00732595
Ti       4.90445414       8.92748417      20.90003610      -0.00256423      -0.00515410       0.00938292
Ti       2.36631043       4.05957953      20.89960917      -0.00190642      -0.00164837       0.01289336
Ti       3.81596964       1.86927410      21.67330047      -0.00146692       0.00004153       0.00715147
Ti       1.27352298       6.74148075      21.66588612      -0.00074860       0.00174590       0.00636110
