64
Lattice="5.088765 0.0 0.0 0.0 9.739025 0.0 0.0 0.0 22.303587" Properties=species:S:1:pos:R:3:forces:R:3 job_name=T2-Zn-Zn-48-d-5.58 GB_type=T2 element=Zn system=Zn-48-d-5.58 distance=5.58 energy=-488.88509138 stress_kbar_3x3="_JSON [[-2.1102634, 0.00713919, 0.000224], [0.00713919, -16.70575399, 6.22433561], [0.000224, 6.22433563, -17.36745992]]" pbc="T T T"
Ti       2.60213611       9.31644256       0.07782041       0.00243106      -0.00358586       0.00208495
Ti       0.05244449       4.45453273       0.09881444       0.00538932      -0.00400472      -0.00045520
Ti       1.32832088       2.01845081       0.55976445      -0.00201151       0.00407708      -0.00225647
Ti       3.88148221       6.89530703       0.57288249      -0.00050657       0.00586653       0.00108167
Ti       2.62185647       4.28664684       1.29611492       0.00432905      -0.00102090       0.00483008
Ti       0.07739767       9.16510166       1.29347923       0.00111568       0.00287589       0.00103617
Ti       0.98675527       6.34134062       2.14647837      -0.00046840      -0.00269878       0.00855470
Ti       3.52010127       1.47067231       2.13922287       0.00362149       0.00004813       0.00648546
Ti       0.28216639       3.53162751       2.76281028       0.00075515      -0.00322244      -0.00025961
Ti       2.82871200       8.41010591       2.76270895       0.00241350      -0.00462759       0.00019801
Ti       1.10869354       0.84917179       3.50598586      -0.00318503      -0.00157953      -0.00007095
Ti       3.65533479       5.71830938       3.50452859      -0.00119082      -0.00077771      -0.00217383
Ti       2.73802884       3.12341509       4.21447766      -0.00056052      -0.00244495      -0.00367925
Ti       0.19600648       7.99072246       4.21396815       0.00019939      -0.00128426      -0.00456971
Ti       3.60728156       0.44337745       4.83846101      -0.00391568      -0.00445923      -0.00201779
Ti       1.06097798       5.31163387       4.84234506       0.00095438      -0.00524047      -0.00666879
Ti       2.73942826       7.52273978       5.57598390      -0.00370295       0.00048545      -0.00032401
Ti       0.19412956       2.65336096       5.57573607      -0.00042235      -0.00043690       0.00015709
Ti       3.60748317       4.86344748       6.31362084      -0.00400072       0.00383568       0.00246523
Ti       1.06100880       9.73429049       6.30934127       0.00123452       0.00440964       0.00703409
Ti       0.19570437       7.05510412       6.93732122      -0.00007771       0.00317659       0.00449556
Ti       2.73780754       2.18394381       6.93707159      -0.00112777       0.00081301       0.00297412
Ti       1.10863766       4.45805852       7.64564382      -0.00371708       0.00066911       0.00057815
Ti       3.65507252       9.32791130       7.64738463      -0.00101172       0.00069440       0.00137885
Ti       0.28184204       1.77573469       8.38845304       0.00116077       0.00225525      -0.00115666
Ti       2.82848178       6.63605956       8.38882140       0.00358703       0.00508643      -0.00103619
Ti       0.98621015       8.70437164       9.00530954      -0.00042882       0.00332531      -0.00908716
Ti       3.51962812       3.83624106       9.01284250       0.00371815       0.00072611      -0.00567648
Ti       2.62063933       1.02084146       9.85588348       0.00510371       0.00142879      -0.00454018
Ti       0.07646683       5.88116684       9.85797686       0.00210053      -0.00232654       0.00037195
Ti       3.88073548       8.15125763      10.57891302      -0.00038380      -0.00544534      -0.00144424
Ti       1.32748265       3.28926925      10.59190206      -0.00079159      -0.00351352       0.00237939
Ti       0.05154684       0.85367180      11.05211513       0.00588014       0.00357673       0.00042937
Ti       2.60150995       5.73013125      11.07345451       0.00148174       0.00313707      -0.00180805
Ti       3.87655659       3.43155012      11.74360090       0.00375269      -0.00028098       0.00290136
Ti       1.35176799       8.30585307      11.75256962       0.00567709      -0.00019679       0.00561375
Ti       2.29502910       1.29863385      12.62387831       0.00141343      -0.00179271       0.00764480
Ti       4.86995630       6.20282244      12.63294651       0.00045841      -0.00106255       0.00438932
Ti       1.54615864       4.05546763      13.25697343       0.00086533      -0.00271375       0.00105866
Ti       4.09213944       8.94354804      13.23767644      -0.00029139      -0.00400480       0.00690560
Ti       4.91917965       1.87425045      13.93587417       0.00086738      -0.00253066       0.00052856
Ti       2.40351018       6.74992915      13.95873765      -0.00423572      -0.00387782      -0.00038400
Ti       1.38285083       9.30404483      14.69803550      -0.00832150      -0.00317977       0.00081272
Ti       3.98682038       4.43033948      14.65556050      -0.00229869      -0.00290727       0.00683488
Ti       4.82302790       7.08403975      15.36508908      -0.00189851       0.00273998      -0.00181659
Ti       2.31982828       2.18439954      15.35000234      -0.00298107      -0.00111986      -0.00175454
Ti       1.46658144       4.87938254      16.00822710      -0.00229691      -0.00277861      -0.00383130
Ti       3.95301079       0.00243038      15.98016335       0.00055074      -0.00196874      -0.00364790
Zn       2.28144501       7.52344478      16.72738293       0.00261510       0.00059786       0.00072905
Ti       4.87365497       2.65345472      16.72751936      -0.00194619       0.00155382       0.00018701
Ti       3.95320621       5.30509598      17.47491748       0.00072752       0.00216964       0.00324052
Ti       1.46710107       0.42887361      17.44685085      -0.00274183       0.00258061       0.00429598
Ti       4.82341542       7.96306557      18.08960455      -0.00254371      -0.00423337       0.00192216
Ti       2.31956047       3.12354935      18.10493065      -0.00334157       0.00253134       0.00179207
Ti       1.38314760       5.74300514      18.75744719      -0.00826146       0.00329662      -0.00116326
Ti       3.98708260       0.87797398      18.79954719      -0.00116700       0.00366768      -0.00685320
Ti       2.40369252       8.29749258      19.49587820      -0.00430516       0.00321468       0.00095041
Ti       4.91960722       3.43380045      19.51955478       0.00013588       0.00427160      -0.00093579
Ti       1.54683346       1.25273242      20.19815650       0.00105326       0.00359393      -0.00176864
Ti       4.09249091       6.10448702      20.21712367       0.00101627       0.00211205      -0.00725840
Ti       4.87061041       8.84495185      20.82196238      -0.00010064      -0.00053909      -0.00307356
Ti       2.29643243       4.00976862      20.83135779       0.00064041       0.00164050      -0.00791573
Ti       3.87724206       1.87600203      21.71191339       0.00357466       0.00129357      -0.00242287
Ti       1.35212143       6.74181069      21.70294040       0.00541059      -0.00189556      -0.00629132
