64
Lattice="5.088765 0.0 0.0 0.0 9.739025 0.0 0.0 0.0 22.303587" Properties=species:S:1:pos:R:3:forces:R:3 job_name=T2-Zn-Zn-52-d-6.97 GB_type=T2 element=Zn system=Zn-52-d-6.97 distance=6.97 energy=-488.79374921 stress_kbar_3x3="_JSON [[-2.73462886, 0.44010862, -0.52417551], [0.4401086, -19.05966119, -0.70120162], [-0.52417552, -0.70120162, -19.23204241]]" pbc="T T T"
Ti       2.58344966       9.24955588      22.26249519      -0.00023073       0.00396710       0.00256151
Ti       5.08161852       4.37261367      22.28879409       0.00428353      -0.00292228      -0.00012133
Ti       1.29153094       1.86387599       0.62372418       0.00373085      -0.00432757      -0.00986865
Ti       3.82913328       6.74555395       0.60471469       0.00052556       0.00537545      -0.00476124
Ti       2.70790555       4.06962148       1.39286009      -0.00254339      -0.00015434      -0.00826645
Ti       0.18180949       8.94435750       1.36547151       0.00062152      -0.00172901      -0.00597759
Ti       1.03551652       6.20928891       2.11994425      -0.00016967       0.00149533      -0.00959119
Ti       3.60059340       1.34566754       2.11676971      -0.00217070      -0.00322143      -0.01013111
Ti       0.22061366       3.49954373       2.76508586       0.00197699      -0.00058618      -0.00480934
Ti       2.77001231       8.37563413       2.74045827       0.00168892       0.00207854      -0.01042452
Ti       1.11021324       0.86856275       3.49926333      -0.00143278       0.00034084      -0.00628962
Ti       3.65265883       5.74374114       3.50248438      -0.00336095      -0.00169818      -0.00471553
Ti       2.75347894       3.10717169       4.18813067       0.00135942      -0.00124393       0.00051217
Ti       0.20950328       7.98210017       4.17835988       0.00207907       0.00006582      -0.00397940
Ti       3.61118236       0.43569794       4.85413844       0.00221333       0.00315883       0.00052781
Ti       1.06736294       5.30691586       4.85947759       0.00097365      -0.00358206      -0.00013270
Ti       2.74850315       7.52456990       5.56988088       0.00035891      -0.00011278       0.00106927
Ti       0.20594816       2.65165512       5.57497401      -0.00020491      -0.00051994       0.00137008
Ti       3.61528280       4.87152788       6.29699830       0.00127905      -0.00256806       0.00125780
Ti       1.06932896       0.00035900       6.29666627      -0.00027034       0.00337127       0.00323453
Ti       0.21058886       7.06923291       6.96379131      -0.00036928       0.00047099       0.00299215
Ti       2.75865989       2.20047513       6.96339293       0.00012600       0.00052595       0.00113686
Ti       1.10745785       4.43532081       7.64997107      -0.00147344      -0.00245652       0.00191500
Ti       3.65113011       9.30237332       7.64928339       0.00008899       0.00196900       0.00218741
Ti       0.22049492       1.80390846       8.38863226      -0.00044735       0.00139318       0.00109775
Ti       2.76464145       6.67498344       8.39332397       0.00056877      -0.00038642       0.00682689
Ti       1.04054113       8.82889606       9.03574198      -0.00032870      -0.00053249       0.00585009
Ti       3.58869205       3.96104939       9.03127513       0.00205626       0.00068043       0.00268765
Ti       2.71561333       1.23551615       9.75461799       0.00343016      -0.00413853       0.00012969
Ti       0.16872210       6.10121768       9.76902883      -0.00086345      -0.00013848       0.00842519
Ti       3.82404470       8.29797382      10.53969569       0.00079401      -0.00208303       0.00637199
Ti       1.27691969       3.43407015      10.53144427       0.00037375       0.00235370       0.00492655
Ti       0.00042443       0.92087841      11.16577590      -0.00352192      -0.00417633      -0.00107847
Ti       2.55226327       5.79460712      11.17240675       0.00072535       0.00224795       0.00311916
Ti       3.82974114       3.43116600      11.77667803      -0.00008010       0.00215009      -0.00226829
Ti       1.28789361       8.29541771      11.77577331      -0.00003707      -0.00551069      -0.00040677
Ti       2.38710087       1.22981504      12.53860071       0.00213530       0.00214223       0.00110727
Ti       4.93171400       6.11238545      12.56333471       0.00292937       0.00141991      -0.00537452
Ti       1.51309409       3.96627361      13.26874588      -0.00136032       0.00449008      -0.00279873
Ti       4.05925303       8.82780821      13.28256620       0.00205909      -0.00449979      -0.00916203
Ti       4.86753464       1.81286430      13.93954818       0.00038244       0.00221323      -0.00495747
Ti       2.33953506       6.68268486      13.96143642      -0.00077821      -0.00429645      -0.00867047
Ti       1.44979995       9.32009168      14.62945844       0.00016115       0.00002508      -0.01238554
Ti       3.99369969       4.43250745      14.65719016       0.00124675       0.00314995      -0.00053009
Ti       4.92052980       7.07674836      15.37238220      -0.00167683      -0.00743021      -0.00721906
Ti       2.33789834       2.19553335      15.34140349      -0.00263520       0.00437454       0.00227994
Ti       1.47958608       4.84277862      16.01086514      -0.00107117      -0.00711060      -0.00608599
Ti       4.00736639       9.73404959      16.02506183       0.00116758       0.00550292      -0.00264264
Ti       2.27893314       7.53623233      16.74286557      -0.00371954      -0.00202346      -0.00674534
Ti       4.85706727       2.62530574      16.75287853      -0.00271129       0.00794349       0.00435541
Ti       4.00507013       5.33164042      17.44960449       0.00061870      -0.00857106       0.00306386
Ti       1.40528488       0.45656638      17.46314224      -0.00437585       0.00998217       0.00431571
Zn       4.82152307       7.97977712      18.11367041       0.00166403      -0.00084189       0.00111274
Ti       2.34381584       3.11699550      18.12118741       0.00094919       0.00138764       0.00680876
Ti       1.38386643       5.74769626      18.78747706      -0.00474892      -0.01189201       0.00419864
Ti       3.94156496       0.85108158      18.78899038       0.00545303       0.00983740       0.00754580
Ti       2.27213342       8.36434403      19.50860750      -0.00271545       0.00372935       0.01151472
Ti       4.85641548       3.52398990      19.51032613      -0.00011853      -0.00775397       0.00325058
Ti       1.51146978       1.37222284      20.18906508       0.00059453       0.01241459       0.00919059
Ti       4.05610420       6.22868982      20.17274411       0.00234137      -0.00722371       0.00355692
Ti       4.97132769       8.92139191      20.87050360      -0.00181071       0.00786699       0.01302225
Ti       2.38492097       4.08355921      20.90926684      -0.00101656      -0.00347892       0.00138857
Ti       3.84472680       1.86804037      21.66974394      -0.00464678      -0.00067330      -0.00001987
Ti       1.27952679       6.73448500      21.70904281      -0.00006650      -0.00024039       0.01450259
