64
Lattice="5.088765 0.0 0.0 0.0 9.739025 0.0 0.0 0.0 22.303587" Properties=species:S:1:pos:R:3:forces:R:3 job_name=T2-Zr-Zr-46-d-4.86 GB_type=T2 element=Zr system=Zr-46-d-4.86 distance=4.86 energy=-495.83722795 stress_kbar_3x3="_JSON [[7.00157808, 2.81937038, 0.00524262], [2.81937039, -8.6910129, 4.65051012], [0.00524257, 4.65051013, -8.13163158]]" pbc="T T T"
Ti       2.55812316       9.29114326       0.03362246      -0.00438365      -0.00075210       0.00437522
Ti       0.00680660       4.41915744       0.02869196       0.00248973      -0.00134034      -0.00114813
Ti       1.28865129       1.92928088       0.63104546       0.00159839      -0.00069864       0.00095644
Ti       3.84273825       6.80120862       0.63880290       0.00299120       0.00206215       0.00256885
Ti       2.69250038       4.14214327       1.39255257      -0.00115880      -0.00135648       0.00017853
Ti       0.15411256       9.01267428       1.38861488      -0.00162417      -0.00284813       0.00280390
Ti       1.03496002       6.24739317       2.14330246      -0.00076310      -0.00289777      -0.00025086
Ti       3.58250015       1.38131758       2.13358483       0.00029950      -0.00409844       0.00121890
Ti       0.23026987       3.52017979       2.76507039      -0.00099436      -0.00107659       0.00021537
Ti       2.77668949       8.38861013       2.76542080       0.00013002      -0.00206433       0.00015484
Ti       1.11523055       0.87697355       3.50869343      -0.00207335      -0.00157522      -0.00104629
Ti       3.65889988       5.74499143       3.51734853      -0.00033496       0.00050440      -0.00106835
Ti       2.77216867       3.10957706       4.18125806      -0.00290560       0.00027831      -0.00278110
Ti       0.22599082       7.98186794       4.18236249      -0.00151022       0.00067922      -0.00174520
Ti       3.61534282       0.41482221       4.84526129      -0.00002289      -0.00034708      -0.00151764
Ti       1.07119800       5.28240196       4.84856613      -0.00126566      -0.00087868      -0.00245306
Ti       2.74659663       7.49820572       5.58643776      -0.00247496      -0.00137777       0.00031731
Ti       0.20628124       2.63101300       5.58606194      -0.00264528      -0.00216564      -0.00203789
Ti       3.62660127       4.83679591       6.29998984      -0.00216329      -0.00094417      -0.00100772
Ti       1.08245572       9.70723701       6.29616962      -0.00050906      -0.00292845       0.00169686
Ti       0.18825882       7.04536413       6.91157824      -0.00141940       0.00234802       0.00072993
Ti       2.73440575       2.17824611       6.91305041      -0.00333533      -0.00202933       0.00081346
Ti       1.12376576       4.45778749       7.64207139      -0.00205406       0.00212004       0.00167900
Ti       3.66356644       9.32009636       7.63255823      -0.00458185       0.00009125       0.00215902
Ti       0.30148455       1.76187478       8.35264109       0.00037235      -0.00055059      -0.00418913
Ti       2.84520563       6.63037784       8.36917192      -0.00122153       0.00114970      -0.00135545
Ti       0.97734554       8.67614039       8.98737080      -0.00032165      -0.00610958      -0.00458012
Ti       3.54984868       3.80940655       8.98915685      -0.00083173      -0.00235108       0.00358476
Ti       2.62159570       0.99632265       9.82876399      -0.00178964      -0.00400344      -0.00221922
Ti       0.07417278       5.88030489       9.84388417      -0.00280815      -0.00559021      -0.00004445
Ti       3.86662908       8.14155875      10.57000284      -0.00120423      -0.00589938      -0.00240890
Ti       1.33950455       3.27814639      10.53083065       0.00195127       0.00178297       0.00441153
Ti       0.04636047       0.85358172      11.00454446       0.00000236       0.00031042       0.00144879
Ti       2.60186688       5.71195984      11.02528059      -0.00094903      -0.00542762      -0.00113561
Ti       3.89381504       3.40737635      11.71874157       0.00124233       0.00144057       0.00005325
Ti       1.32725190       8.31354356      11.70779911       0.00196739      -0.00053111       0.00074871
Ti       2.27817010       1.29261628      12.58349944      -0.00056295       0.00262949       0.00167297
Ti       4.85918555       6.21091473      12.59941528      -0.00069436       0.00131414      -0.00256834
Ti       1.54084474       4.03695710      13.16245145       0.00241486       0.00287958      -0.00333512
Ti       4.08942790       8.96378655      13.21425040       0.00141086       0.00198180       0.00043784
Ti       4.93073392       1.87030153      13.94444085       0.00178347       0.00350360      -0.00158332
Ti       2.38060353       6.78389103      13.85312936       0.00073219      -0.00230381      -0.00084858
Ti       1.42874427       9.29926194      14.67427122       0.00181887       0.00401192      -0.00088869
Ti       3.97000513       4.44707168      14.59039458      -0.00407758       0.00253883      -0.00008957
Ti       4.77433788       7.14329221      15.31121944      -0.00435180       0.00393162       0.00002459
Ti       2.32733100       2.18549627      15.27571982       0.00119726       0.00663221       0.00022082
Zr       1.46148451       4.90415369      15.99746461       0.00375202       0.00438863      -0.00009932
Ti       4.00992332       0.02777932      16.00114487       0.00104660       0.00153763      -0.00043153
Ti       2.31293841       7.61351234      16.80576470       0.00180437      -0.00153130       0.00572993
Ti       4.76988077       2.65586297      16.76298273      -0.00177950       0.00002971       0.00248064
Ti       4.00500634       5.36506640      17.51861202      -0.00205903       0.00001386       0.00331098
Ti       1.46845547       0.51773134      17.44955155       0.00414130       0.00001719      -0.00107593
Ti       4.89481875       8.01581476      18.12101750       0.00022619      -0.00085799      -0.00065743
Ti       2.33387962       3.12284149      18.20012922       0.00338865       0.00454956      -0.00363583
Ti       1.42842330       5.79272440      18.89373135       0.00530053       0.00302968      -0.00062456
Ti       3.97073414       0.88305917      18.83283367       0.00046450       0.00414265      -0.00314533
Ti       2.30924806       8.39646768      19.55098061       0.00144147      -0.00302441      -0.00044250
Ti       4.87269725       3.50760988      19.54433823      -0.00058329       0.00184147       0.00185961
Ti       1.48432066       1.33735312      20.21818837       0.00083709       0.00059289      -0.00017384
Ti       4.03724300       6.23326279      20.22450778       0.00103509      -0.00393963      -0.00477704
Ti       4.89126225       8.92820878      20.92242516       0.00671942       0.00277866       0.00585513
Ti       2.34855545       4.06001728      20.93296844       0.00360131       0.00488600       0.00095381
Ti       3.83413308       1.89086025      21.69610157       0.00175077       0.00177212       0.00113854
Ti       1.29998894       6.76566271      21.72222149       0.00154315      -0.00027103       0.00156652
