64
Lattice="5.088765 0.0 0.0 0.0 9.739025 0.0 0.0 0.0 22.303587" Properties=species:S:1:pos:R:3:forces:R:3 job_name=T2-Zn-Zn-36-d-1.39 GB_type=T2 element=Zn system=Zn-36-d-1.39 distance=1.39 energy=-488.88998429 stress_kbar_3x3="_JSON [[-2.71442809, 1.10130099, 1.93218959], [1.10130096, -18.63811993, 1.32543314], [1.93218957, 1.32543317, -19.60231347]]" pbc="T T T"
Ti       2.54580190       9.25759252       0.00037650      -0.00092953      -0.00595386       0.00375235
Ti       0.00561677       4.38662192       0.00023783       0.00499682      -0.00470723      -0.00100291
Ti       1.27130760       1.88104315       0.61494481      -0.00016576       0.00486762      -0.00791240
Ti       3.81838539       6.75014938       0.61677946      -0.00400972       0.01073038      -0.00296631
Ti       2.70997065       4.07632848       1.38767974      -0.00081949       0.00509378      -0.00630289
Ti       0.16553020       8.94874041       1.39076432       0.00190734       0.00295086      -0.00632957
Ti       1.04420212       6.21869842       2.12309998       0.00142817       0.00259005      -0.00242680
Ti       3.58396842       1.35172285       2.12579530      -0.00119136      -0.00048537      -0.00166321
Ti       0.22658348       3.50121059       2.76618506       0.00277877      -0.00106096      -0.00145042
Ti       2.77092127       8.37302418       2.76470917       0.00270589      -0.00389588      -0.00752947
Ti       1.10733830       0.87247069       3.50523521      -0.00333366      -0.00366566      -0.00038389
Ti       3.65004084       5.73824943       3.50094385      -0.00293834      -0.00321134       0.00062914
Ti       2.75791316       3.10483990       4.20086703       0.00120618       0.00100659      -0.00074466
Ti       0.21471903       7.97380889       4.19003710      -0.00152698      -0.00116400       0.00013147
Ti       3.60798614       0.42841877       4.86330898       0.00148485      -0.00261590      -0.00065387
Ti       1.06139451       5.29655909       4.86235311      -0.00220199      -0.00069153      -0.00210467
Ti       2.74928095       7.51202355       5.57878595      -0.00182420      -0.00344927      -0.00035871
Ti       0.20203163       2.64280813       5.58834826      -0.00454359      -0.00136741      -0.00056475
Ti       3.61340905       4.86021375       6.31248365      -0.00016756      -0.00323457      -0.00074218
Ti       1.06597185       9.73662986       6.30467553      -0.00276908      -0.00576706       0.00592750
Ti       0.20466646       7.06794517       6.96030208      -0.00370606      -0.00292328       0.00193117
Ti       2.75283328       2.18936575       6.97740331      -0.00090988      -0.00349859      -0.00193063
Ti       1.08854340       4.43417607       7.65347137      -0.00340967      -0.00064732       0.00444203
Ti       3.63841093       9.30132930       7.65941743      -0.00202782      -0.00334242       0.00162671
Ti       0.23050225       1.78750147       8.41462089       0.00129797      -0.00210291       0.00106276
Ti       2.75858801       6.64805577       8.38482934      -0.00030252      -0.00405150       0.00808711
Ti       1.02055003       8.80305198       9.04335286      -0.00641362      -0.01247001       0.00295849
Ti       3.56252688       3.91559800       9.06273420      -0.00481522      -0.00273128       0.00066588
Ti       2.69037656       1.17744807       9.79721164      -0.00811392      -0.00866969      -0.00091955
Ti       0.11916855       6.07083525       9.77888976      -0.00832347      -0.01047011       0.01126743
Ti       3.77735495       8.28333347      10.53472322       0.00007646      -0.01741836       0.00611485
Ti       1.26468551       3.43202455      10.53001840       0.00031478      -0.00127157       0.00057754
Ti       0.06883796       0.95033598      11.14355920       0.00221563      -0.00069623      -0.00514686
Ti       2.52808544       5.79561405      11.16740686      -0.00080988       0.00438727      -0.00135584
Ti       3.87765459       3.49903824      11.81093309       0.00156466       0.01198022      -0.01120080
Ti       1.21653227       8.32689498      11.78448947       0.00318731      -0.01389634       0.00098689
Zn       2.38568299       1.29947744      12.52741336      -0.00109384       0.00932517      -0.00005234
Ti       4.93795149       6.12249699      12.57395828      -0.00451649       0.01001429      -0.00060629
Ti       1.51890809       3.93357966      13.27060078       0.00401168       0.01206100      -0.00542036
Ti       3.96664877       8.84555184      13.29264547      -0.00413987      -0.00028841      -0.00313754
Ti       4.82913053       1.80694636      13.91059783      -0.00154014       0.00702352       0.00339036
Ti       2.31877402       6.71390687      13.89565536       0.00071940       0.00305674      -0.01030041
Ti       1.38807992       9.32697179      14.56989963       0.00133053      -0.00032224       0.00014211
Ti       4.00236758       4.44377170      14.65031324       0.00362109       0.00963226      -0.00061118
Ti       4.89551653       7.07098080      15.33860542      -0.00024771      -0.00128540      -0.00233825
Ti       2.38679890       2.19136052      15.31419748       0.00188367       0.00172315       0.00208087
Ti       1.50431868       4.86569560      16.00393652      -0.00162998       0.00228333      -0.00345373
Ti       4.05340525       9.71709099      16.00926315       0.00351770       0.00162330       0.00585519
Ti       2.33505937       7.54353159      16.68369935       0.00235269       0.00444759      -0.00206253
Ti       4.89924587       2.65198057      16.69685100       0.00292308       0.00046097       0.00150882
Ti       4.02475136       5.30454240      17.45361870       0.00216361       0.00174753      -0.00159315
Ti       1.48716998       0.44447732      17.43372686      -0.00231546       0.00299624       0.00157626
Ti       4.88039230       7.98110917      18.12118766       0.00299683       0.00475198      -0.00522095
Ti       2.34089160       3.10982104      18.11266528       0.00350291      -0.00019358       0.00159890
Ti       1.44825926       5.74968637      18.77755932       0.00524521      -0.00060212      -0.00055569
Ti       3.99021044       0.87826469      18.79469954       0.00346606       0.00162973       0.00061428
Ti       2.33381113       8.37199647      19.52369692      -0.00015636       0.00205574       0.00386962
Ti       4.88536740       3.49725977      19.53104238       0.00122873      -0.00552172       0.00291214
Ti       1.51199875       1.34149026      20.17299811       0.00250494       0.00088879       0.00215585
Ti       4.06029290       6.21114191      20.17975571       0.00109472      -0.00102381       0.00373935
Ti       4.91950350       8.94263462      20.90685744       0.00116129       0.00288027       0.00399432
Ti       2.38027156       4.07892125      20.89647134      -0.00115242      -0.00094034       0.00303232
Ti       3.81919001       1.88075882      21.68182879       0.00493626       0.00669804       0.00286420
Ti       1.27988379       6.75053591      21.67934097       0.00822035       0.00673086       0.00954692
