64
Lattice="5.088765 0.0 0.0 0.0 9.739025 0.0 0.0 0.0 22.303587" Properties=species:S:1:pos:R:3:forces:R:3 job_name=T2-Zr-Zr-37-d-1.39 GB_type=T2 element=Zr system=Zr-37-d-1.39 distance=1.39 energy=-495.89147905 stress_kbar_3x3="_JSON [[6.0752876, -3.67172023, -0.37034262], [-3.6717202, -9.31207356, -2.00756192], [-0.37034262, -2.00756194, -8.72647633]]" pbc="T T T"
Ti       2.54890896       9.28842362       0.01497703       0.00173705       0.00676339      -0.00234071
Ti       0.00746412       4.42018197       0.01317700       0.00046823      -0.00167838       0.00495472
Ti       1.27297471       1.91242810       0.61560843       0.00565595       0.00807798      -0.00074112
Ti       3.81695802       6.78032555       0.61690003       0.00004919       0.00074537      -0.00237759
Ti       2.71293811       4.10564141       1.38297142      -0.00841119       0.00333476      -0.00306805
Ti       0.16451419       8.97586102       1.38336571      -0.00090812       0.01247333      -0.00279643
Ti       1.04671139       6.24836303       2.12026421      -0.00106581       0.00212578       0.00540068
Ti       3.58946446       1.37766338       2.12408981      -0.00166656       0.01207855      -0.00095282
Ti       0.23014031       3.53015631       2.75746746      -0.00065468      -0.00282782      -0.00190343
Ti       2.77264953       8.40007906       2.75598812       0.00125634       0.00370416       0.00848367
Ti       1.11790187       0.89928814       3.48340850       0.00109765       0.00219586       0.00955919
Ti       3.66296438       5.76880919       3.48232252       0.00116471       0.00215316       0.00485316
Ti       2.74614635       3.14920875       4.17856039       0.00520554       0.00320085       0.00157532
Ti       0.20208770       8.02026226       4.17179788       0.00405763       0.00284219       0.01413406
Ti       3.60875260       0.48144164       4.84180189       0.00075107      -0.00297870       0.00881750
Ti       1.06638080       5.34984705       4.83704482      -0.00111384       0.00426016       0.00087678
Ti       2.76126985       7.55667118       5.52978639       0.00524052       0.00113246       0.01376931
Ti       0.21595042       2.68234230       5.53664488       0.00287581      -0.00089690       0.00101962
Ti       3.61979711       4.90139093       6.28533333       0.00077975       0.00650175       0.00698563
Ti       1.07716211       0.02753426       6.29212226      -0.00569150       0.00011984       0.00566416
Ti       0.21950615       7.10632025       6.94668095       0.00653114       0.00730892      -0.00278310
Ti       2.76003885       2.22962401       6.95776949       0.00643844       0.00127158       0.00218928
Ti       1.11704853       4.45226981       7.59886613       0.00622206       0.00141071       0.00181327
Ti       3.66280432       9.32213208       7.60559311       0.00405301      -0.00156275      -0.00103648
Ti       0.17104946       1.87138647       8.35357062      -0.00281332       0.00079258      -0.00961702
Ti       2.71659164       6.75519270       8.34317671      -0.00361364       0.01118062      -0.00042010
Ti       1.00405456       8.91861221       9.03956543      -0.00849213       0.00630228       0.00169019
Ti       3.53921381       4.05381391       9.01555227      -0.00319923       0.00202820      -0.00437772
Ti       2.80276210       1.26625943       9.67418230      -0.00911266       0.00250915      -0.00799266
Ti       0.24375062       6.16391913       9.62413903       0.00364912       0.00706720      -0.00325750
Ti       3.78937102       8.28574071      10.56551998      -0.00363752       0.00660115       0.00393047
Ti       1.21583490       3.38509497      10.53605773       0.00701783      -0.00382864      -0.00000725
Ti       5.07154098       0.81706687      11.25675055       0.01420297      -0.00799370       0.00370617
Ti       2.46690009       5.68465063      11.18416061      -0.01583821      -0.01102164      -0.00525235
Ti       3.75171678       3.20093248      11.62938054      -0.00886039      -0.00326377      -0.00043667
Ti       1.26090496       8.16083701      11.71270897      -0.00882645       0.00471517      -0.00186318
Ti       2.47784616       1.00079476      12.44156734       0.00501344      -0.01322752      -0.00153503
Zr       4.92927621       5.81739350      12.48377593       0.00520568      -0.00888885      -0.00305200
Ti       1.68558146       3.74960607      13.30360978       0.00652896      -0.00025205      -0.00564806
Ti       4.14817699       8.75334046      13.32474239       0.00300275       0.00142305       0.00542079
Ti       4.76618192       1.84223598      13.93014844       0.00472340      -0.00796929       0.00147955
Ti       2.26372840       6.70658128      13.97398288       0.00149516       0.00565058       0.00412994
Ti       1.41736490       9.37799352      14.67452827       0.00454490       0.00261697       0.00334753
Ti       3.94931531       4.44271099      14.78864398      -0.00717381      -0.00616382       0.00817443
Ti       4.90142018       7.08941969      15.41696493       0.00070905       0.00218744       0.00546061
Ti       2.36236634       2.18663408      15.44117561       0.00427709       0.00017033      -0.00606687
Ti       1.43232266       4.85358872      15.99323214       0.00165616      -0.00695534      -0.00674511
Ti       4.01516531       9.71938266      16.00879286      -0.00259483      -0.00195361      -0.00548328
Ti       2.33191751       7.50288367      16.72808366       0.00651198      -0.00048780       0.00393766
Ti       4.90207923       2.61211304      16.75957259      -0.00728737      -0.00603790       0.00125990
Ti       4.03122523       5.29294654      17.48796210      -0.00211116       0.00179045      -0.00733758
Ti       1.49455664       0.41423012      17.48839886      -0.00025357      -0.00413613      -0.01128316
Ti       4.85200206       7.99000507      18.15114952      -0.00019092       0.00296901      -0.00882827
Ti       2.31675198       3.13150930      18.13890365       0.00213113      -0.01011521      -0.00573640
Ti       1.42780567       5.76292248      18.81908634      -0.00232897       0.00188673       0.00165934
Ti       3.97170813       0.89253045      18.82531736       0.00203260      -0.00981444       0.00149918
Ti       2.32852493       8.38420618      19.56432931      -0.00415168      -0.00425109      -0.01075944
Ti       4.87187626       3.51130657      19.56923231      -0.00803943      -0.00488383       0.00203092
Ti       1.50503500       1.36261863      20.19283846       0.00700236      -0.00723192       0.00345403
Ti       4.04743279       6.22839611      20.19712314      -0.00424754       0.00114911      -0.00010611
Ti       4.91925212       8.96887249      20.92034312      -0.00876856      -0.00501410      -0.01333883
Ti       2.37597067       4.09810383      20.91447688      -0.01133508      -0.01107620       0.00203373
Ti       3.81423168       1.90928825      21.70259590       0.00108936       0.00147015      -0.00462632
Ti       1.27099579       6.77927350      21.69617559       0.00801015       0.00030045      -0.00154014
