64
Lattice="5.088765 0.0 0.0 0.0 9.739025 0.0 0.0 0.0 22.303587" Properties=species:S:1:pos:R:3:forces:R:3 job_name=T2-Zr-Zr-44-d-4.19 GB_type=T2 element=Zr system=Zr-44-d-4.19 distance=4.19 energy=-495.79033764 stress_kbar_3x3="_JSON [[6.53767008, 0.39835264, -0.46165202], [0.39835267, -9.85761501, 0.0767459], [-0.46165202, 0.0767459, -9.29056296]]" pbc="T T T"
Ti       2.53269899       9.26936807       0.02451923       0.00032940       0.00659313       0.00177569
Ti      -0.00183053       4.39962146       0.02474676       0.00113568      -0.00363555      -0.00131790
Ti       1.26675295       1.89147041       0.61997445       0.00004871       0.00463763      -0.00322461
Ti       3.81376534       6.76120110       0.63015083      -0.00293208       0.00617102       0.00371283
Ti       2.70205030       4.08374933       1.39556803       0.00194595       0.00640230      -0.00348895
Ti       0.16230245       8.95393600       1.40678818       0.00172664       0.00853853       0.00360196
Ti       1.04216198       6.22406918       2.13196571       0.00066002       0.00384303       0.00071730
Ti       3.58084866       1.35517414       2.12900427       0.00065443       0.00356700      -0.00536470
Ti       0.22466358       3.50063332       2.76751367      -0.00066106       0.00092186      -0.00963102
Ti       2.76909526       8.37355566       2.77413706       0.00052125      -0.00316972      -0.00237852
Ti       1.11252468       0.87539250       3.50285887      -0.00280273      -0.00371623      -0.00442609
Ti       3.65727512       5.74051149       3.50023821      -0.00248785       0.00647530       0.00465037
Ti       2.75330107       3.11019600       4.19091408       0.00126726       0.00456764      -0.00430126
Ti       0.20919417       7.97976582       4.18892845       0.00127572      -0.00286034      -0.00296935
Ti       3.61919561       0.44032580       4.85457797      -0.00242439      -0.00394639      -0.00467030
Ti       1.07332829       5.30700755       4.85126305      -0.00104289       0.00633223       0.00011864
Ti       2.75307521       7.52551492       5.56917587       0.00081368      -0.00170201       0.00016333
Ti       0.20782446       2.65204614       5.56954214      -0.00088237       0.00488033       0.00377331
Ti       3.61981644       4.86872675       6.28771599      -0.00279284       0.00457282       0.00559042
Ti       1.07428639       0.00136790       6.28717347       0.00005504      -0.00610702       0.00350058
Ti       0.21070489       7.07180081       6.94643743       0.00070980      -0.00552416       0.00080963
Ti       2.75674690       2.19651161       6.95601887      -0.00011539       0.00165182       0.00779064
Ti       1.10914425       4.43028422       7.63127916       0.00110852       0.00190317       0.00189217
Ti       3.65871086       9.30869375       7.64675178      -0.00075439      -0.00312424       0.00224587
Ti       0.22794132       1.80075884       8.37486943      -0.00005123       0.00189547       0.00758335
Ti       2.76723536       6.67080238       8.35956368      -0.00069284      -0.00147254      -0.00284314
Ti       1.05715671       8.82138577       9.01213512      -0.00091050      -0.00494590       0.00085888
Ti       3.58081181       3.95371899       9.02044117       0.00179435      -0.00172211      -0.00021264
Ti       2.70616218       1.23245667       9.75886336       0.00332252      -0.00270556       0.00427420
Ti       0.15741842       6.09032102       9.71508737       0.00172532      -0.00715040      -0.00538855
Ti       3.82113835       8.29621037      10.50121921      -0.00250245      -0.00279615      -0.00332712
Ti       1.26664698       3.42543608      10.51395766       0.00325185      -0.00556146       0.00301025
Ti       0.01020970       0.92209842      11.12408454      -0.00094357       0.00050985      -0.00247180
Ti       2.52388299       5.78907470      11.11369499      -0.00466409      -0.00393206      -0.00617008
Ti       3.81496875       3.43157511      11.75308191       0.00063059      -0.00690199      -0.00374229
Ti       1.28412332       8.31251726      11.75867060      -0.00181058       0.00083217      -0.00218339
Ti       2.37615321       1.25046898      12.53590126       0.00062784       0.00761693      -0.00528994
Ti       4.90800464       6.10436218      12.45961375      -0.00150443      -0.00663009      -0.00473987
Ti       1.46672002       3.95118171      13.27007416      -0.00369906      -0.00507847      -0.00349904
Ti       4.03472573       8.86074160      13.21558741       0.00009299       0.00589547       0.00082898
Ti       4.87414688       1.76989493      13.90584742      -0.00274272      -0.00044715      -0.00098895
Ti       2.33053225       6.63746633      13.84450251       0.00569823      -0.00226665      -0.00232015
Ti       1.50139366       9.31878907      14.63159849       0.00293851       0.00178506      -0.00359728
Ti       3.97457188       4.35951031      14.57932476       0.00433224      -0.00494809      -0.00418576
Zr       4.86955515       7.04008654      15.34571915       0.00375108       0.00776083      -0.00152892
Ti       2.32021871       2.18620691      15.34894924      -0.00343232      -0.00173364      -0.00085117
Ti       1.57397065       4.83321268      16.02772919       0.00666430       0.00084616       0.00374139
Ti       4.03442014       0.05234469      16.04401455       0.00182786      -0.00326253       0.00205854
Ti       2.33915149       7.55017367      16.80048406       0.00724881      -0.00248510       0.00165930
Ti       4.88234425       2.69464468      16.72715424       0.00195949       0.00412320       0.00133118
Ti       3.99444673       5.28285787      17.53243685      -0.00017048      -0.00069276       0.00092729
Ti       1.44897588       0.43990993      17.45958344      -0.00180328      -0.00287941       0.00172236
Ti       4.86858214       7.99748938      18.19947173       0.00051128      -0.00129370       0.00287025
Ti       2.32582800       3.08688492      18.13748359      -0.00317080      -0.00523299       0.00219420
Ti       1.42237276       5.71945473      18.80013911      -0.00218662      -0.00342737      -0.00067518
Ti       3.98348465       0.87408718      18.79675609      -0.00187653       0.00032527       0.00493492
Ti       2.31589794       8.35644494      19.58104386      -0.00234457       0.00139229       0.00168275
Ti       4.85972304       3.48180598      19.57151354      -0.00053613      -0.00380397       0.00757665
Ti       1.51780180       1.34221554      20.19685222      -0.00367967       0.00448000       0.00234212
Ti       4.06323741       6.21528995      20.21682768      -0.00404220      -0.00247871       0.00104778
Ti       4.90581907       8.97058530      20.94292563      -0.00012423       0.00726834       0.00202849
Ti       2.36490053       4.09077876      20.92319354       0.00050718      -0.00351086       0.00016360
Ti       3.80696769       1.89510008      21.70647550       0.00351647       0.00529511       0.00248937
Ti       1.26629271       6.76236638      21.70994434      -0.00286872       0.00006137       0.00011938
