64
Lattice="5.088765 0.0 0.0 0.0 9.739025 0.0 0.0 0.0 22.303587" Properties=species:S:1:pos:R:3:forces:R:3 job_name=T2-Zr-Zr-40-d-2.77 GB_type=T2 element=Zr system=Zr-40-d-2.77 distance=2.77 energy=-495.87373194 stress_kbar_3x3="_JSON [[5.65813783, -3.71762909, 0.83467471], [-3.71762909, -8.61323279, -2.63510282], [0.83467472, -2.63510284, -6.6055192]]" pbc="T T T"
Ti       2.53340780       9.29046772      22.30276513      -0.00290937       0.00164416      -0.00507076
Ti       5.07770986       4.42415445       0.01267389      -0.00253485       0.00021565      -0.00271323
Ti       1.25733307       1.89944342       0.61760106       0.00139107      -0.00282635      -0.00969449
Ti       3.80067842       6.77201438       0.62390081       0.00087181      -0.00130831      -0.00488415
Ti       2.71430668       4.08082963       1.40356874       0.00012621      -0.00171948      -0.00714052
Ti       0.17495799       8.94841043       1.40412030       0.00010702      -0.00425702      -0.01080012
Ti       1.03774514       6.22757454       2.12444208      -0.00090501      -0.00118333      -0.00915650
Ti       3.58070527       1.35651176       2.12053943       0.00022197       0.00040383      -0.00854568
Ti       0.21026423       3.51303272       2.76251605      -0.00013517       0.00310394      -0.00404245
Ti       2.75479216       8.38538060       2.76606072      -0.00019591       0.00006133      -0.00423420
Ti       1.10681036       0.89262673       3.49147898      -0.00186047       0.00224954      -0.00191457
Ti       3.65026472       5.76280867       3.48800346      -0.00042662       0.00127326      -0.00382654
Ti       2.73655541       3.13813884       4.17310660       0.00231030       0.00277353       0.00024747
Ti       0.19296185       8.00459858       4.18166772       0.00062121       0.00117192      -0.00280174
Ti       3.59818689       0.46583692       4.84149086       0.00051472       0.00447811       0.00116296
Ti       1.05372106       5.33881681       4.84469222       0.00088578       0.00145343      -0.00083625
Ti       2.74822601       7.54397126       5.54798741       0.00121292       0.00058803       0.00081197
Ti       0.20102572       2.67298417       5.53929164      -0.00008691       0.00268724      -0.00020135
Ti       3.60559500       4.88805119       6.28140107       0.00095444       0.00145378      -0.00464869
Ti       1.05635277       0.01597384       6.29009808       0.00323752       0.00402546      -0.00007614
Ti       0.19653155       7.09050138       6.96322984       0.00025944       0.00097928       0.00430105
Ti       2.74039284       2.21934707       6.93965182      -0.00033573       0.00245321      -0.00160140
Ti       1.09942586       4.44454912       7.60436178       0.00164304       0.00334141      -0.00097153
Ti       3.64365071       9.31419155       7.61462261      -0.00037883       0.00256802       0.00659585
Ti       0.15242779       1.87051442       8.34813998       0.00161971       0.00114047       0.00311879
Ti       2.70331249       6.72751732       8.34870174       0.00154408       0.00860387       0.00663691
Ti       0.99686946       8.89925219       9.02418847       0.00037123       0.00318947       0.01561961
Ti       3.52811218       4.04885626       9.01084768       0.00079359       0.00367000       0.01136574
Ti       2.74563629       1.28957800       9.64708127       0.00545823      -0.00179663       0.01357938
Ti       0.23383965       6.14191730       9.68903080       0.00337999       0.00803901       0.01112343
Ti       3.74438495       8.26721927      10.52574390       0.00170086       0.00114120       0.00192143
Ti       1.22217255       3.43011737      10.55247825       0.00166805      -0.00131423       0.00932272
Ti       5.03624682       0.80494657      11.15501047      -0.00693841      -0.00632872       0.00464273
Ti       2.51652947       5.72299546      11.24452572       0.00478177      -0.00098633       0.00377963
Ti       3.76102154       3.25148089      11.60923080      -0.00052911      -0.01169099       0.00362565
Ti       1.21586527       8.13349743      11.69249986      -0.00212865       0.00501952      -0.00846130
Ti       2.47261587       0.95575337      12.38576320       0.01197013       0.00345629      -0.01225415
Ti       5.02281339       5.82898194      12.44793016       0.00125524      -0.00657252      -0.00779598
Ti       1.71479442       3.87175453      13.29130792       0.00617940      -0.00807161      -0.00645202
Ti       4.14495069       8.63206873      13.27177258      -0.00027279       0.00407423      -0.01797363
Zr       4.82872963       1.82939238      13.90862934       0.00078379      -0.00218117      -0.00179010
Ti       2.22492545       6.66925731      13.92039709      -0.00223992      -0.00775559      -0.00184107
Ti       1.51944549       9.31569358      14.69706168      -0.00055512       0.00274631      -0.00430195
Ti       3.99062111       4.54966348      14.72319355      -0.00108067      -0.00611309      -0.00592043
Ti       4.91310871       7.10204569      15.42156057      -0.00305806      -0.00325375       0.00138717
Ti       2.38096406       2.22248357      15.46306577       0.00628694       0.00051565      -0.00842507
Ti       1.46718650       4.86293256      16.00291028      -0.00263235      -0.00312291      -0.00547093
Ti       4.02752400       9.71464899      16.06134444      -0.00092745       0.00352605      -0.00090074
Ti       2.35801073       7.49936930      16.74022606       0.00016635      -0.00315798       0.00285711
Ti       4.90025537       2.66535731      16.80270987      -0.00462254      -0.00256773      -0.00558758
Ti       4.04762302       5.30699272      17.48814812      -0.00278150       0.00012176      -0.00138035
Ti       1.49975514       0.41619157      17.47735990      -0.00384504      -0.00427355       0.00159878
Ti       4.87469918       7.99678352      18.16023541      -0.00357018      -0.00139114       0.00363432
Ti       2.32843732       3.13842952      18.16231918      -0.00146193      -0.00204296       0.00390595
Ti       1.44156356       5.76317513      18.82497507      -0.00080516       0.00015632       0.00409466
Ti       3.99104509       0.89125862      18.83238633      -0.00019992      -0.00200530       0.00678493
Ti       2.32879042       8.39720155      19.56849808      -0.00347620       0.00055884       0.00515311
Ti       4.86575696       3.53363591      19.58538727      -0.00264984      -0.00125933       0.01033769
Ti       1.51532555       1.37812859      20.18799732      -0.00163528      -0.00184935       0.01084188
Ti       4.05621778       6.25288687      20.19827913       0.00020633       0.00106120       0.00740152
Ti       4.94159277       9.00276306      20.94220260       0.00218840       0.00195145       0.00609811
Ti       2.38633271       4.13470158      20.94208948       0.00050301      -0.00001021       0.00881973
Ti       3.80202099       1.92700061      21.70757355      -0.00413412       0.00185411      -0.00072855
Ti       1.25997654       6.79399947      21.70557164      -0.00590147       0.00128869       0.00167387
