64
Lattice="5.088765 0.0 0.0 0.0 9.739025 0.0 0.0 0.0 22.303587" Properties=species:S:1:pos:R:3:forces:R:3 job_name=T2-Zr-Zr-51-d-6.29 GB_type=T2 element=Zr system=Zr-51-d-6.29 distance=6.29 energy=-495.83698599 stress_kbar_3x3="_JSON [[6.9411387, -2.73829341, 0.02569166], [-2.73829339, -8.66230392, 4.6180348], [0.02569169, 4.61803482, -8.18189463]]" pbc="T T T"
Ti       2.60110919       9.33182912       0.12521091      -0.00040265      -0.00266985      -0.00044328
Ti       0.04820614       4.45084575       0.14439474      -0.00371685       0.00138637      -0.00315241
Ti       1.34051596       2.02641009       0.62467515      -0.00118864       0.00050040      -0.00135536
Ti       3.86853142       6.90168050       0.58572864      -0.00307050       0.00093834      -0.00316292
Ti       2.62465076       4.30739491       1.32335343      -0.00058866      -0.00063828      -0.00235822
Ti       0.07447443       9.16398269       1.30870212       0.00068405      -0.00541910      -0.00042276
Ti       0.98201439       6.36642955       2.16424183      -0.00118080       0.00281893      -0.00415813
Ti       3.55355399       1.49558349       2.16273296       0.00097416       0.00079208      -0.00306480
Ti       0.30142601       3.54643963       2.79933024      -0.00070833      -0.00027454      -0.00043124
Ti       2.84331650       8.41709123       2.78322737       0.00340964      -0.00226688      -0.00135513
Ti       1.12407027       0.84971469       3.50934339      -0.00076939      -0.00012874       0.00033724
Ti       3.66377882       5.72626342       3.51840198      -0.00010987       0.00283988      -0.00321323
Ti       2.73517197       3.12861183       4.23599239       0.00171769       0.00103490       0.00185619
Ti       0.18923708       8.00015614       4.23757184       0.00087105       0.00295083      -0.00193450
Ti       3.62787753       0.46964368       4.85260715       0.00014787       0.00211746       0.00104098
Ti       1.08300940       5.33850702       4.85673787       0.00180594      -0.00020276      -0.00395461
Ti       2.74859527       7.54757175       5.56490031      -0.00025616       0.00204426      -0.00235587
Ti       0.20823130       2.67523045       5.56500594      -0.00066203       0.00048471       0.00220811
Ti       3.61604160       4.89168085       6.30539067       0.00275594      -0.00240523      -0.00014741
Ti       1.07282957       0.02356129       6.30209203      -0.00027669       0.00572361       0.00291278
Ti       0.22660260       7.06500184       6.96836753       0.00067173       0.00008790       0.00178627
Ti       2.77257926       2.19779057       6.96977678      -0.00017554      -0.00287522       0.00395107
Ti       1.11609236       4.43150188       7.64383577      -0.00031176      -0.00814516      -0.00143222
Ti       3.66080661       9.30128696       7.63513703      -0.00171218       0.00308882       0.00101041
Ti       0.23110316       1.78760677       8.38555405       0.00036181      -0.00102471       0.00057514
Ti       2.77769018       6.65921264       8.38447038       0.00099915      -0.00156777       0.00278727
Ti       1.03789883       8.79962106       9.00854362      -0.00161274       0.00505296       0.00050251
Ti       3.58374053       3.92751996       9.01777788       0.00053165      -0.00227485      -0.00101444
Ti       2.69462317       1.16831835       9.75866928       0.00019726      -0.00007646      -0.00173686
Ti       0.15478023       6.03646723       9.76134100       0.00117972       0.00141691       0.00292456
Ti       3.84277051       8.24571397      10.51218967       0.00247318       0.00261039       0.00418611
Ti       1.28763726       3.37921011      10.51990964       0.00007240      -0.00101993       0.00232536
Ti       0.00675263       0.88775579      11.12298361       0.00076501       0.00119058       0.00072433
Ti       2.55648448       5.75511564      11.11684495      -0.00159647       0.00211834       0.00497579
Ti       3.83246218       3.41595681      11.75748173      -0.00078653      -0.00013975       0.00369183
Ti       1.29896184       8.28009549      11.73287118       0.00372223      -0.00538430       0.00050003
Ti       2.34928256       1.24549889      12.52159249      -0.00051929      -0.00201138      -0.00307337
Ti       4.89187381       6.11520226      12.53142046      -0.00302581       0.00188658       0.00070298
Ti       1.48412365       3.96884520      13.23719260       0.00260992       0.00444595      -0.00001513
Ti       4.03834765       8.81292378      13.23075332      -0.00113234      -0.00182795      -0.00349484
Ti       4.86992076       1.80057100      13.90826063      -0.00066378       0.00315721       0.00067433
Ti       2.30806091       6.65093471      13.90165366      -0.00361457      -0.00180462      -0.00085204
Ti       1.42865712       9.25597987      14.56168892      -0.00259320      -0.00338996      -0.00064281
Ti       3.96945711       4.42498130      14.62318919      -0.00252468       0.00843737      -0.00186852
Ti       4.89086000       7.03276722      15.33297750       0.00453956      -0.00210023      -0.00046422
Ti       2.33079062       2.18702747      15.25634135      -0.00142247       0.00107794      -0.00658701
Ti       1.46675292       4.79508326      16.00514943      -0.00252490      -0.00423147      -0.00153423
Ti       4.00462062       9.68500109      15.93576254      -0.00124876      -0.00381856      -0.00375844
Ti       2.31117923       7.43510697      16.64891766      -0.00253574      -0.00615183      -0.00246101
Ti       4.76869222       2.65369546      16.69257344       0.00170202      -0.00434047      -0.00021513
Ti       4.01004623       5.28187980      17.45518777      -0.00497687      -0.00152985       0.00017981
Zr       1.46284428       0.40515842      17.45860215      -0.00700328      -0.00451680      -0.00201357
Ti       4.76986788       7.90552258      18.14300931       0.00472908       0.00392703       0.00258278
Ti       2.32375086       3.12480761      18.17760515      -0.00011127       0.00527450       0.00825747
Ti       1.42679489       5.75160633      18.78472571       0.00448270      -0.00059629       0.00266190
Ti       3.96876099       0.86358961      18.86948879       0.00412131       0.00226352       0.00169707
Ti       2.37870941       8.26722794      19.60308110      -0.00502110      -0.00160262       0.00668909
Ti       4.92852330       3.44063650      19.51266266       0.00173988       0.00208747       0.00060498
Ti       1.53613187       1.27309481      20.29490526       0.00351701      -0.00090490      -0.00055522
Ti       4.08535297       6.08574808      20.24162157       0.00264868      -0.00233866       0.00381288
Ti       4.85944755       8.83209939      20.85643665       0.00391787       0.00286311       0.00233752
Ti       2.28056615       4.01187109      20.87167081       0.00085956       0.00507791      -0.00393086
Ti       3.89486901       1.89621370      21.73622579       0.00028739      -0.00051187      -0.00147082
Ti       1.32966032       6.73078224      21.74596886      -0.00045162      -0.00150528       0.00013382
