64
Lattice="5.088765 0.0 0.0 0.0 9.739025 0.0 0.0 0.0 22.303587" Properties=species:S:1:pos:R:3:forces:R:3 job_name=T2-Zr-Zr-45-d-4.19 GB_type=T2 element=Zr system=Zr-45-d-4.19 distance=4.19 energy=-495.79001934 stress_kbar_3x3="_JSON [[6.39000566, 0.36415645, -0.44150484], [0.36415648, -10.06522743, -0.01935609], [-0.44150488, -0.01935611, -9.49807263]]" pbc="T T T"
Ti       2.54389779       9.25829604       0.02276476      -0.00196167       0.01657645       0.00359125
Ti       5.07558027       4.39077582       0.02553488       0.00320939       0.01039558      -0.00319189
Ti       1.26868686       1.88337403       0.63517674       0.00448071       0.00459617      -0.00926684
Ti       3.81091775       6.75232971       0.62505828       0.00378165       0.00894664      -0.00737142
Ti       2.70627882       4.07759603       1.40956858      -0.00088285       0.00373609      -0.00742781
Ti       0.15915598       8.94486673       1.39543721      -0.00144310       0.00874211      -0.00346950
Ti       1.04251719       6.22032276       2.12723746      -0.00586489       0.00445774      -0.00025330
Ti       3.59254337       1.35067373       2.13044129      -0.00645914       0.00422049      -0.00389839
Ti       0.22310030       3.50342369       2.77485427       0.00223315       0.00004704      -0.00233897
Ti       2.76869150       8.36998331       2.76539083      -0.00176723       0.00241093       0.00303438
Ti       1.11320175       0.87156884       3.49908274       0.00124414      -0.00103146      -0.00060241
Ti       3.65689445       5.74400344       3.50057508      -0.00027943       0.00061911       0.00259863
Ti       2.75447246       3.10849254       4.18666646      -0.00175026       0.00208767       0.00317827
Ti       0.20995704       7.97894682       4.18738941       0.00063425      -0.00071308       0.00722909
Ti       3.61892829       0.43797344       4.85078145      -0.00461177      -0.00140196       0.00446035
Ti       1.07489067       5.30878340       4.85445647      -0.00118530       0.00293862       0.00402493
Ti       2.75275745       7.52205222       5.56891082      -0.00107709      -0.00053430       0.00303465
Ti       0.20928459       2.65581379       5.56784697      -0.00034726      -0.00012700       0.00479003
Ti       3.61895530       4.87030335       6.28654160      -0.00337023       0.00280800       0.00025651
Ti       1.07540043      -0.00003665       6.28723890      -0.00321977      -0.00182445      -0.00103963
Ti       0.21217233       7.06754220       6.95790936       0.00096739      -0.00089824      -0.00451404
Ti       2.75455442       2.20222837       6.94546732       0.00152143       0.00111188       0.00259078
Ti       1.11357748       4.43961105       7.64749054       0.00009548      -0.00041340      -0.00034367
Ti       3.65292162       9.29976898       7.63199184       0.00276207      -0.00123617      -0.00044133
Ti       0.22059964       1.80258828       8.35648344       0.00355807      -0.00242204       0.00556958
Ti       2.76961515       6.67233255       8.37600145       0.00212050      -0.00447777      -0.00369562
Ti       1.03776311       8.82713395       9.02167743      -0.00179876      -0.00299012      -0.00154907
Ti       3.60155529       3.95537109       9.01105826       0.00298701      -0.00826582       0.00694353
Ti       2.70360717       1.22617830       9.71038157      -0.00201989      -0.00178900       0.01113668
Ti       0.16035746       6.10760072       9.75678102       0.00075002      -0.00953609       0.00312184
Ti       3.80974121       8.29822463      10.51359321       0.00216837       0.00131344       0.00529266
Ti       1.27278216       3.43154017      10.49691662       0.00430545      -0.00444342       0.00779078
Ti       5.06509479       0.92349535      11.11392075       0.00233910      -0.00336896       0.00079656
Ti       2.55121849       5.79640610      11.12292704       0.00699938      -0.01270169       0.00237209
Ti       3.82571065       3.44639009      11.75958137       0.00057071      -0.00249437      -0.00373387
Ti       1.27027864       8.30236243      11.75302364      -0.00419951       0.00515767       0.00154580
Ti       2.36683040       1.23395766      12.45741832      -0.00937461      -0.00190464      -0.00526079
Ti       4.91824338       6.12462913      12.53159066       0.00282531      -0.00123997       0.00687943
Ti       1.48822971       3.99429598      13.21404620      -0.00136628      -0.00217355      -0.00041732
Ti       4.01101479       8.82254094      13.27133047      -0.00212983      -0.00755617      -0.00364336
Ti       4.87445741       1.76995535      13.84334004       0.01765254       0.00211457       0.00108838
Ti       2.32589928       6.64022928      13.90699306       0.00688602       0.00345946      -0.00541256
Ti       1.43295933       9.23189022      14.57989933      -0.00046041       0.00412677       0.00289449
Ti       4.04760346       4.45267413      14.63116838       0.00360278       0.00813044      -0.00419646
Ti       4.86415556       7.06059831      15.35058015      -0.00378222      -0.00932897      -0.00491954
Zr       2.33096996       2.17857604      15.34352051      -0.01309824      -0.01201768       0.00610141
Ti       1.48930334       4.92585884      16.04794015      -0.00257898      -0.01183584      -0.00015871
Ti       4.12007557       9.70911612      16.03011252      -0.00454889      -0.01435652       0.00144366
Ti       2.33973507       7.56605229      16.72830110      -0.00033305       0.00380428      -0.00163772
Ti       4.88484914       2.68175995      16.80188985       0.00977578      -0.00350252      -0.00509744
Ti       3.99281469       5.30981013      17.45916439      -0.00079484       0.00152289      -0.00026439
Ti       1.45282610       0.41423561      17.53207861      -0.00286869       0.00542851      -0.00917092
Ti       4.86960799       7.95731682      18.13807590       0.00009705      -0.00422017       0.00261254
Ti       2.32480200       3.12777528      18.20277343      -0.00536350       0.00200679      -0.00513234
Ti       1.43962449       5.74511473      18.80236230      -0.00313396      -0.00031639      -0.00064900
Ti       3.96772945       0.85272827      18.80406181      -0.00181954      -0.00808642       0.00136106
Ti       2.31672790       8.35443975      19.57242130       0.00029309      -0.00659383       0.00312602
Ti       4.85947911       3.49217099      19.58153938       0.00470138      -0.00356174       0.00149358
Ti       1.51189039       1.34446880      20.21804246       0.00042532      -0.00330417      -0.00053665
Ti       4.05459823       6.21035608      20.20014605       0.00906735       0.00441350      -0.00360808
Ti       4.91228721       8.95009763      20.92423025       0.00125631       0.01201309      -0.00713261
Ti       2.36273312       4.09329525      20.94553984      -0.00224891       0.00980900      -0.00076008
Ti       3.81101792       1.88337699      21.70460111       0.00005131       0.00612696       0.00684434
Ti       1.26497540       6.75502186      21.70473318      -0.00722240       0.00754602      -0.00606756
