64
Lattice="5.088765 0.0 0.0 0.0 9.739025 0.0 0.0 0.0 22.303587" Properties=species:S:1:pos:R:3:forces:R:3 job_name=T2-Zn-Zn-47-d-4.86 GB_type=T2 element=Zn system=Zn-47-d-4.86 distance=4.86 energy=-488.84703091 stress_kbar_3x3="_JSON [[-2.57933303, 0.94626442, -0.20771912], [0.9462644, -17.42050463, 4.67228117], [-0.20771909, 4.67228113, -17.88543123]]" pbc="T T T"
Ti       2.55978528       9.28786909       0.05400307       0.00293136       0.00272665       0.00087125
Ti       0.01120158       4.41805062       0.04692702       0.00219209       0.00201618      -0.00018062
Ti       1.28981279       1.95959835       0.57172363      -0.00092516       0.00219296      -0.00437611
Ti       3.84111216       6.82802154       0.58347117       0.00223735       0.00468123      -0.00192117
Ti       2.63452603       4.19782746       1.34483727      -0.00060434       0.00283904      -0.00066189
Ti       0.09451740       9.07358004       1.34264398      -0.00092203       0.00056050       0.00021202
Ti       0.98710501       6.27903236       2.13414601      -0.00233750      -0.00410322      -0.00231941
Ti       3.52972301       1.41305623       2.12450271      -0.00299780      -0.00234421      -0.00306720
Ti       0.23073538       3.51757936       2.75572264      -0.00080616       0.00098866      -0.00385271
Ti       2.77965251       8.38684062       2.75398163      -0.00027988      -0.00009063      -0.00011337
Ti       1.09204982       0.85895836       3.50494555      -0.00085317       0.00016115       0.00020667
Ti       3.63655482       5.72909279       3.50896515      -0.00031299       0.00241331       0.00064724
Ti       2.73830318       3.11403359       4.19169007      -0.00002716      -0.00078831      -0.00010903
Ti       0.19403432       7.98296403       4.19491021      -0.00068357      -0.00167686       0.00104209
Ti       3.59173583       0.42693588       4.83957599      -0.00043346      -0.00149166       0.00066684
Ti       1.04728849       5.29417900       4.84522127       0.00023959       0.00104887      -0.00068771
Ti       2.72482195       7.51232965       5.58195018      -0.00087439       0.00132678      -0.00044257
Ti       0.18254679       2.64491622       5.58354601       0.00010096       0.00094567      -0.00204730
Ti       3.59592267       4.85314272       6.31075500      -0.00139372       0.00329096      -0.00443054
Ti       1.04921773       9.72128904       6.31078636       0.00136660       0.00106616      -0.00067310
Ti       0.17772840       7.05495161       6.93282319       0.00090059       0.00274058       0.00063927
Ti       2.72075422       2.18699949       6.92709728       0.00138267      -0.00045489      -0.00089974
Ti       1.09716201       4.45956986       7.65875509       0.00019606       0.00046813       0.00150895
Ti       3.63522851       9.32208349       7.65060084       0.00012599       0.00135074       0.00342897
Ti       0.26873551       1.77098122       8.37390346      -0.00264916      -0.00270633       0.00441311
Ti       2.81319114       6.64491550       8.38919578      -0.00143104      -0.00164374       0.00268910
Ti       0.96358436       8.70349511       9.02867256      -0.00175663      -0.00073992       0.00543881
Ti       3.52857878       3.83848487       9.01204739       0.00054493      -0.00057762       0.00145767
Ti       2.60085922       1.03394178       9.83220220      -0.00243035      -0.00066099       0.00354127
Ti       0.05173117       5.91352308       9.85735019      -0.00414368      -0.00208060       0.00710834
Ti       3.84077591       8.18325729      10.60053975       0.00340927       0.00721017       0.00246558
Ti       1.31206636       3.30813410      10.56468113       0.00590269       0.00295150      -0.00018561
Ti       0.01821121       0.87735658      11.05499966       0.00429787       0.00225836      -0.00855366
Ti       2.57711679       5.73941690      11.05393626       0.00426358       0.00440012      -0.00435921
Ti       3.88078247       3.44658617      11.77629716       0.00345820      -0.00234492       0.00135734
Ti       1.30974315       8.33388206      11.79283998       0.00053518       0.00456436       0.00028425
Ti       2.28278974       1.33015643      12.58566096       0.00348471       0.00148073       0.00303961
Ti       4.83229211       6.20631001      12.60958525      -0.00025349       0.00577229       0.00125475
Ti       1.52258770       4.07372005      13.24324891      -0.00290915       0.00090253      -0.00240839
Ti       4.03465695       8.95589647      13.29003881      -0.00618348      -0.00117191      -0.00208599
Ti       4.97852901       1.85080270      13.97276382       0.00254197      -0.00164543      -0.00176111
Ti       2.37885622       6.70245328      13.93869832       0.00106784       0.00023251      -0.00286728
Ti       1.52273499       9.31397311      14.68884990       0.00169128      -0.00206804      -0.00200455
Ti       4.02048656       4.42210899      14.67527113       0.00316578       0.00036288      -0.00286875
Ti       4.91162389       7.11243615      15.33211058       0.00104710      -0.00150762      -0.00133977
Ti       2.40764262       2.22745663      15.30236548      -0.00600253      -0.00584576      -0.00384773
Ti       1.48990341       4.87244224      16.01297378      -0.00381802      -0.00229342      -0.00034790
Zn       4.07958620       0.02369405      16.02236366       0.00125460      -0.00224136       0.00003196
Ti       2.40443721       7.54234357      16.75331761      -0.00140010      -0.00111103      -0.00171373
Ti       4.89635293       2.66446958      16.73599097       0.00009931      -0.00253707      -0.00184380
Ti       4.05570539       5.36288588      17.41429392       0.00093222      -0.00404884       0.00103748
Ti       1.53862981       0.45613641      17.41032299       0.00164468      -0.00294434      -0.00303534
Ti       4.93245860       7.99062018      18.11190192      -0.00087317      -0.00415755       0.00101343
Ti       2.35370742       3.13391064      18.12952799      -0.00119636      -0.00190888       0.00154377
Ti       1.45031279       5.74400058      18.79999978      -0.00099043      -0.00451651      -0.00019681
Ti       3.96274689       0.86658466      18.77389846      -0.00314793      -0.00086194       0.00132182
Ti       2.34506574       8.33167945      19.54114584      -0.00090438      -0.00636429       0.00411318
Ti       4.88823227       3.48002596      19.51789274       0.00036912      -0.00299443      -0.00084328
Ti       1.49399437       1.28098123      20.15557543       0.00275091       0.00152102      -0.00013240
Ti       4.05960204       6.16404043      20.17120784       0.00122549      -0.00000151      -0.00041550
Ti       4.85723770       8.89042671      20.87320443      -0.00197314       0.00375545       0.00552019
Ti       2.31793841       4.01170328      20.88715470      -0.00026860       0.00153442       0.00406148
Ti       3.83494241       1.86392100      21.67238070      -0.00029267       0.00020996       0.00218540
Ti       1.29562290       6.73860403      21.69206709       0.00071565       0.00194993       0.00349146
