64
Lattice="5.088765 0.0 0.0 0.0 9.739025 0.0 0.0 0.0 22.303587" Properties=species:S:1:pos:R:3:forces:R:3 job_name=T2-Zn-Zn-49-d-5.58 GB_type=T2 element=Zn system=Zn-49-d-5.58 distance=5.58 energy=-488.88525443 stress_kbar_3x3="_JSON [[-2.39043387, 0.01080777, -0.00724955], [0.01080772, -17.13916088, 6.14939239], [-0.0072495, 6.14939236, -17.74466165]]" pbc="T T T"
Ti       2.60005869       9.31823495       0.09564360      -0.00088309      -0.00486667       0.00120386
Ti       0.05905785       4.44046714       0.07705088       0.00089006      -0.00091570       0.00094514
Ti       1.33953202       2.01739644       0.57518899      -0.00136128       0.00533450      -0.00509005
Ti       3.87459718       6.88074917       0.56178917      -0.00248050       0.00532031      -0.00676517
Ti       2.62555173       4.28709054       1.29326437       0.00156651       0.00504017      -0.00613430
Ti       0.08322674       9.14638663       1.29637712       0.00352020       0.00373967      -0.00336525
Ti       0.98129257       6.33361804       2.13824818      -0.00264725       0.00408007       0.00064249
Ti       3.53656460       1.46462344       2.14499138      -0.00170877       0.00005619      -0.00103603
Ti       0.28650767       3.53645113       2.76265512       0.00025443      -0.00060896      -0.00798630
Ti       2.82894733       8.39841333       2.76159126      -0.00030984      -0.00153890      -0.00743697
Ti       1.11423570       0.84674594       3.50313713      -0.00271476      -0.00355037      -0.00137540
Ti       3.65515989       5.71669959       3.50455629      -0.00138558       0.00086332       0.00021503
Ti       2.74440803       3.11843122       4.21257992      -0.00016942       0.00239217       0.00296194
Ti       0.19825040       7.99000541       4.21245271       0.00112827       0.00010787      -0.00128188
Ti       3.61006972       0.44018982       4.84222369      -0.00274188       0.00011380      -0.00163297
Ti       1.06639455       5.31095862       4.84008411      -0.00021975      -0.00041183      -0.00083007
Ti       2.74225279       7.52291084       5.57572613      -0.00526471      -0.00038604       0.00016471
Ti       0.19760511       2.65346022       5.57582363      -0.00214478      -0.00084982      -0.00004636
Ti       3.61046801       4.86681026       6.30958996      -0.00364018      -0.00048715       0.00167486
Ti       1.06646610       9.73515063       6.31195450      -0.00131048      -0.00051660      -0.00007128
Ti       0.19789824       7.05613342       6.93879479       0.00151797       0.00142741       0.00200722
Ti       2.74412585       2.18889485       6.93870044      -0.00013822      -0.00237864      -0.00280868
Ti       1.11394946       4.46067584       7.64864545      -0.00218529       0.00378157       0.00135280
Ti       3.65474819       9.32976948       7.64718204      -0.00054231      -0.00081110      -0.00007210
Ti       0.28649491       1.77095676       8.38902062       0.00035879       0.00006381       0.00782407
Ti       2.82877004       6.64785938       8.38960600      -0.00031588       0.00127708       0.00661135
Ti       0.98067350       8.71236243       9.01373567      -0.00253298      -0.00416404      -0.00098223
Ti       3.53588498       3.84225782       9.00688449      -0.00163670      -0.00033934       0.00088834
Ti       2.62494075       1.02015491       9.85875535       0.00222099      -0.00496291       0.00575382
Ti       0.08221631       5.89968665       9.85559762       0.00350596      -0.00324669       0.00306174
Ti       3.87380528       8.16565950      10.58993963      -0.00066033      -0.00387481       0.00622766
Ti       1.33915349       3.28985105      10.57699381      -0.00123472      -0.00537139       0.00346223
Ti       0.05893100       0.86711782      11.07474445       0.00120188       0.00044730      -0.00225972
Ti       2.59950763       5.72863621      11.05520935      -0.00028328       0.00436306       0.00019221
Ti       3.89698216       3.44151270      11.75546824       0.00251822      -0.00175144      -0.00352837
Ti       1.33173015       8.30646373      11.74485790       0.00642056      -0.00311718      -0.00315534
Ti       2.32588434       1.33573576      12.63475039      -0.00387134      -0.00340974      -0.00109447
Ti       4.84082124       6.17089090      12.62554242       0.00053149      -0.00033511       0.00072271
Ti       1.54280514       4.07330450      13.23732997       0.00099759      -0.00209104      -0.00149929
Ti       4.08754633       8.92266265      13.25629777      -0.00252351      -0.00141146      -0.00389771
Ti       4.94387350       1.87804192      13.95859813      -0.00316181       0.00172537      -0.00332568
Ti       2.37096065       6.74408374      13.93529595      -0.00009371       0.00064751      -0.00339986
Ti       1.43755691       9.29823463      14.65657210       0.00133547      -0.00085656      -0.00099207
Ti       3.92150731       4.43418737      14.69685759       0.00049698      -0.00081768      -0.00115924
Ti       4.85726016       7.05229061      15.35056437       0.00186274      -0.00000867       0.00194057
Ti       2.27233685       2.21562252      15.36556715      -0.00001497      -0.00240126      -0.00013198
Ti       1.40189916       4.87315600      15.97933438      -0.00020167       0.00262887      -0.00256990
Ti       4.00343174       0.00907204      16.00733836       0.00389374      -0.00299137       0.00150108
Ti       2.32290432       7.52321025      16.72742537      -0.00200328       0.00015546       0.00041553
Zn       4.81883625       2.65387306      16.72735908       0.00603679       0.00040662       0.00046440
Ti       4.00391050       5.29890008      17.44748110       0.00396323       0.00306914      -0.00085718
Ti       1.40192772       0.43467815      17.47536839      -0.00090154      -0.00241832       0.00288143
Ti       4.85703473       7.99462816      18.10430641       0.00275722       0.00083726      -0.00095118
Ti       2.27237443       3.09259465      18.08898988      -0.00011033       0.00254339       0.00120392
Ti       1.43793538       5.74904970      18.79837560       0.00166555       0.00072628       0.00147889
Ti       3.92163692       0.87381488      18.75817744       0.00041854       0.00063148       0.00238130
Ti       2.37099091       8.30314584      19.52000622       0.00052401      -0.00122949       0.00324435
Ti       4.94347654       3.43039335      19.49618282      -0.00235609      -0.00263616       0.00373114
Ti       1.54312553       1.23573864      20.21748889       0.00011648       0.00107114       0.00191233
Ti       4.08803627       6.12450057      20.19880748      -0.00318847       0.00202730       0.00374289
Ti       4.84192069       8.87634756      20.82977627      -0.00000462       0.00062798      -0.00115467
Ti       2.32586724       3.97286874      20.82066206      -0.00325454       0.00313734       0.00069124
Ti       3.89701392       1.86685280      21.69998539       0.00366661       0.00154294       0.00270624
Ti       1.33223899       6.73999473      21.71055489       0.00682760       0.00457008       0.00268422
