64
Lattice="5.088765 0.0 0.0 0.0 9.739025 0.0 0.0 0.0 22.303587" Properties=species:S:1:pos:R:3:forces:R:3 job_name=T2-Zn-Zn-37-d-1.39 GB_type=T2 element=Zn system=Zn-37-d-1.39 distance=1.39 energy=-488.89097284 stress_kbar_3x3="_JSON [[-1.6402096, 1.14629327, 1.91299208], [1.14629325, -17.58923001, 1.45775424], [1.91299209, 1.45775424, -18.53807205]]" pbc="T T T"
Ti       2.55094631       9.25705079       0.00094575       0.00347183       0.00972385       0.00013717
Ti       0.00297702       4.38952608       0.00113452       0.00180633       0.01577141      -0.00027530
Ti       1.27472997       1.88264324       0.61483623       0.01499317       0.00164364       0.00098493
Ti       3.81699870       6.75327053       0.61392184       0.00902237      -0.00108055      -0.00431574
Ti       2.71006393       4.08283017       1.39140353      -0.00383296       0.00034438      -0.01035181
Ti       0.16581455       8.94846793       1.38775116      -0.00136935      -0.00187906      -0.00738546
Ti       1.03819589       6.22185005       2.12695740      -0.00832684      -0.00244619      -0.00552668
Ti       3.58785933       1.34923300       2.12509972      -0.01144454       0.00306797      -0.00578209
Ti       0.22686895       3.50175263       2.76450801       0.00256970       0.00596329       0.00278721
Ti       2.77110695       8.36947707       2.76531108       0.00460657       0.00058466       0.00379125
Ti       1.10548499       0.86748489       3.50175422       0.00329465       0.00115287       0.00515133
Ti       3.65086901       5.73997057       3.50595871       0.00935814       0.00358188       0.00803508
Ti       2.75865155       3.10340898       4.19090984      -0.00075016      -0.00449641      -0.00012172
Ti       0.21396004       7.97409774       4.19999821      -0.00915125      -0.01065001       0.00583093
Ti       3.60513519       0.42688613       4.86160718      -0.00210356      -0.01237384       0.00500743
Ti       1.06391777       5.29560668       4.86251132      -0.01113169      -0.00147970       0.00338651
Ti       2.74539161       7.51048794       5.58791267       0.00334431       0.00395974       0.00380048
Ti       0.20362719       2.64010148       5.57836239      -0.00183276       0.00339018       0.00366309
Ti       3.60894422       4.86390032       6.30508911       0.00208179       0.00420315       0.00406152
Ti       1.06743765       9.72861108       6.31194729       0.00019227      -0.00271319       0.00594514
Ti       0.20741986       7.05728566       6.97669214      -0.00732507      -0.00583406      -0.01321745
Ti       2.74795671       2.19670838       6.95931697      -0.00846919      -0.00691419       0.00232815
Ti       1.09222438       4.43068018       7.65905757       0.00014186      -0.01111560       0.00006767
Ti       3.63248455       9.30398550       7.65359022      -0.00686016      -0.00771437      -0.00797275
Ti       0.21324945       1.77662514       8.38502625       0.00237296      -0.00234893      -0.00029887
Ti       2.77476002       6.65499445       8.41479725       0.00239119      -0.00322262       0.00156892
Ti       1.01473866       8.78224600       9.06124507      -0.00134081      -0.00368291      -0.00252997
Ti       3.56169311       3.92894176       9.04462528      -0.00747892      -0.00641701       0.00257460
Ti       2.65903703       1.19514716       9.78085800      -0.01068115      -0.01323412       0.00398524
Ti       0.14397352       6.04170854       9.79819891      -0.00907779      -0.00960011       0.00870400
Ti       3.81012171       8.29857343      10.53218688      -0.00000357      -0.01535125       0.00387941
Ti       1.23344440       3.41018150      10.53853141      -0.00026339      -0.01062364       0.00123483
Ti       5.07234202       0.92428042      11.16551422      -0.00277290       0.00017593      -0.00561808
Ti       2.61182390       5.81797980      11.14352012       0.00187757       0.00429753      -0.00108968
Ti       3.76057825       3.45900152      11.78525500       0.00570220       0.00123186       0.00512884
Ti       1.33404915       8.37054628      11.80857860       0.00389223      -0.00212165      -0.00718368
Ti       2.39097778       1.25603673      12.57518040      -0.00460413       0.01360253       0.00805618
Zn       4.92911625       6.17244806      12.52783579      -0.00132820       0.00560616      -0.00170421
Ti       1.42192087       3.97981676      13.29364444       0.00000597       0.01107237       0.00249069
Ti       4.06604726       8.80564211      13.27080794       0.00272546       0.00565318      -0.00474787
Ti       4.86443945       1.84712250      13.89575771       0.00006950       0.00768064      -0.00078431
Ti       2.28634512       6.67992436      13.90935825      -0.00521908       0.00243108      -0.00405510
Ti       1.45791689       9.31389727      14.65042922       0.00435106       0.00783806       0.00672160
Ti       3.93188497       4.45961698      14.57010616       0.00000148       0.00115081      -0.00466614
Ti       4.93116469       7.06200665      15.31424518       0.00766322      -0.00066640      -0.00278129
Ti       2.35150121       2.20380993      15.33923204      -0.00027370      -0.00331697      -0.00259617
Ti       1.51036315       4.84945624      16.00965205      -0.00183194       0.00359229       0.00162243
Ti       4.04998689       9.73645111      16.00392055       0.00000552       0.00270198      -0.00362152
Ti       2.35660301       7.52221752      16.69716847      -0.00163338       0.00588697      -0.00413899
Ti       4.87917887       2.67588596      16.68315745       0.00953061       0.00517918      -0.00057722
Ti       4.03185684       5.31501877      17.43523656       0.00480239       0.00238307      -0.00646972
Ti       1.48082991       0.43640310      17.45385362       0.00001455       0.00204655      -0.00336896
Ti       4.88645562       7.97894298      18.11163538       0.00959288       0.00835967      -0.00398617
Ti       2.33751862       3.11272960      18.12108709      -0.00330947      -0.00301700      -0.00317430
Ti       1.44621377       5.74765953      18.79436135      -0.00085456       0.00528287      -0.00714828
Ti       3.99384268       0.88092947      18.77523874      -0.00049291       0.00059910       0.00260882
Ti       2.34277117       8.36513343      19.53060925      -0.00061002       0.00519766      -0.00237829
Ti       4.87987683       3.50198550      19.52248960       0.00215813      -0.00432890       0.00178943
Ti       1.51789250       1.34189234      20.17843014       0.01312133      -0.00047595       0.00326532
Ti       4.05911082       6.21057268      20.17085612       0.00674114      -0.00072296       0.01663893
Ti       4.92496880       8.94911468      20.89578873       0.00028297      -0.00108031      -0.00177012
Ti       2.37449754       4.07495365      20.90385658       0.00512028      -0.00505979       0.01019765
Ti       3.82575805       1.88255572      21.68140605      -0.00932228       0.00206569      -0.00917765
Ti       1.27642017       6.75191808      21.68380094      -0.00360990      -0.00345449       0.00337079
