64
Lattice="5.088765 0.0 0.0 0.0 9.739025 0.0 0.0 0.0 22.303587" Properties=species:S:1:pos:R:3:forces:R:3 job_name=T2-Zn-Zn-41-d-2.77 GB_type=T2 element=Zn system=Zn-41-d-2.77 distance=2.77 energy=-488.90113371 stress_kbar_3x3="_JSON [[-2.77737012, -0.21546564, 0.70676814], [-0.21546566, -19.31028547, -0.70591234], [0.70676816, -0.70591233, -19.56623316]]" pbc="T T T"
Ti       2.54694617       9.25334279      22.28734644      -0.00168565       0.00140407      -0.00024005
Ti       0.00747718       4.38188929      22.29790252       0.00225063       0.00883202      -0.00382447
Ti       1.27134232       1.87657534       0.61242399       0.00613029       0.00273698       0.00311618
Ti       3.82140914       6.74871567       0.61498163       0.00471540      -0.00121216      -0.00140065
Ti       2.71333080       4.07308142       1.38514943       0.00100238      -0.00000655       0.00023810
Ti       0.17241629       8.94164149       1.39099260       0.00468729       0.00070988       0.00267756
Ti       1.04346942       6.22071285       2.12149747      -0.00087588      -0.00284451      -0.00195050
Ti       3.58272033       1.34829024       2.11459775      -0.00466145       0.00057686       0.00475242
Ti       0.22319706       3.50127975       2.76633289       0.00145316      -0.00429678      -0.00050840
Ti       2.76848405       8.37276409       2.76525969       0.00155963       0.00116461       0.00002606
Ti       1.10425249       0.87489692       3.50762797       0.00225209       0.00361565       0.00010871
Ti       3.65008396       5.74682549       3.49932548       0.00440546      -0.00441057       0.00088340
Ti       2.75566005       3.10772001       4.18427321       0.00522594      -0.00154465      -0.00542080
Ti       0.21574395       7.97486245       4.19777681       0.00056176       0.00418948       0.00072684
Ti       3.61440282       0.43689516       4.85353614       0.00405029       0.00295499      -0.00340767
Ti       1.07223985       5.31237556       4.86562854       0.00111083      -0.00217387      -0.00044736
Ti       2.75890468       7.52410020       5.58993234       0.00228181       0.00215938       0.00284258
Ti       0.20970430       2.66028983       5.59083421       0.00033921       0.00088945      -0.00373540
Ti       3.60883218       4.86805618       6.28591484       0.00103107       0.00011740       0.00029893
Ti       1.06517795       9.73619140       6.30346844       0.00001962       0.00066930       0.00398555
Ti       0.21215865       7.06341003       6.99763213       0.00147464       0.00098402       0.00335962
Ti       2.75200014       2.20118807       6.96298291       0.00073048       0.00262996      -0.00154868
Ti       1.10728772       4.44509476       7.68142382       0.00591046       0.00030091       0.00401145
Ti       3.64980856       9.30481188       7.65649044       0.00044298       0.00010281       0.00132788
Ti       0.22149909       1.80646622       8.40184836       0.00112744       0.00070552      -0.00143817
Ti       2.79022743       6.65673557       8.39809831      -0.00104671      -0.00003456       0.00440326
Ti       1.05874257       8.82118410       9.05071537      -0.00527281      -0.00150897      -0.00087699
Ti       3.61184174       3.97203312       9.01816217      -0.00371005       0.00359385      -0.00202840
Ti       2.69961215       1.24455417       9.75035824       0.00306777       0.00117951      -0.00698680
Ti       0.19543927       6.12849497       9.88873906       0.00066019       0.00005423      -0.00104104
Ti       3.79526390       8.34695745      10.49236242      -0.00269702      -0.00186419      -0.00062832
Ti       1.29225911       3.44998188      10.54077584       0.00259528       0.00051534      -0.00505413
Ti       0.00297152       0.93274274      11.15179591      -0.00428070      -0.00121735      -0.00054130
Ti       2.61343128       5.80477055      11.16012113      -0.00211907       0.00075479      -0.00144461
Ti       3.82983921       3.42671285      11.74503212       0.00107789      -0.00236105      -0.00374070
Ti       1.25770446       8.28194161      11.81980265      -0.00485114      -0.00536631       0.00316986
Ti       2.38172295       1.19642679      12.55133519      -0.00147520      -0.00097538      -0.00322372
Ti       4.87641794       6.10145666      12.64264929       0.00482266      -0.00142353       0.00496289
Ti       1.55251969       3.96541698      13.24640882       0.00692710       0.00001237       0.00396210
Ti       3.95071526       8.86504627      13.25609823       0.00429074      -0.00247322       0.00493985
Ti       4.88906833       1.84964945      13.89810749      -0.00364317       0.00017575      -0.00260526
Zn       2.29657874       6.63511971      13.92969768      -0.00323948      -0.00118749       0.00050621
Ti       1.38754358       9.25618105      14.59576615      -0.00856132      -0.00299397      -0.00222494
Ti       3.93361985       4.43910385      14.72332537      -0.00709522       0.00163199       0.00434241
Ti       4.79607553       7.07671625      15.31464274       0.00444705       0.00659534      -0.00255477
Ti       2.31564916       2.19301585      15.30445636       0.00035388       0.00404236      -0.00474285
Ti       1.41947676       4.86486805      15.97089128       0.00397188       0.00177400      -0.00294105
Ti       4.02985363       0.02598942      15.98690963      -0.00068717      -0.00145707      -0.00055046
Ti       2.36315033       7.50255948      16.69753631      -0.00342202      -0.00622197       0.00208064
Ti       4.88617773       2.63915888      16.73986267       0.00007123      -0.00361206      -0.00032825
Ti       4.03983624       5.28965516      17.46143957      -0.00794010      -0.00039611       0.00317356
Ti       1.49056309       0.42793636      17.42468458      -0.00325247      -0.00463243       0.00323909
Ti       4.88465725       7.96360465      18.07166815      -0.00023109       0.00051703       0.00582175
Ti       2.33657315       3.10748618      18.07654957      -0.00570551       0.00273114      -0.00248540
Ti       1.44777305       5.74560287      18.79973571       0.00333084       0.00098875       0.00447403
Ti       3.98689678       0.86104995      18.80754434      -0.00154539      -0.00701124       0.00061372
Ti       2.32330515       8.37493530      19.51981832      -0.00410873      -0.00431990      -0.00083904
Ti       4.86984492       3.49561422      19.54082615       0.00137425      -0.00224056      -0.00078822
Ti       1.50675341       1.35397211      20.16167632      -0.00064071      -0.00003396      -0.00267504
Ti       4.05761938       6.22572667      20.18233361       0.00065203       0.00430055       0.00332778
Ti       4.93876104       8.93525495      20.90145579       0.00095085      -0.00225572      -0.00141793
Ti       2.39298847       4.07436002      20.89490708      -0.00217989       0.00338238      -0.00170232
Ti       3.82000634       1.87341294      21.67886966      -0.00282105       0.00074403       0.00045656
Ti       1.28554273       6.74375357      21.68089455      -0.00360750       0.00233943      -0.00248531
