64
Lattice="5.088765 0.0 0.0 0.0 9.739025 0.0 0.0 0.0 22.303587" Properties=species:S:1:pos:R:3:forces:R:3 job_name=T2-Zn-Zn-39-d-2.12 GB_type=T2 element=Zn system=Zn-39-d-2.12 distance=2.12 energy=-488.90724612 stress_kbar_3x3="_JSON [[-3.28684322, 0.02628707, -1.22877072], [0.02628708, -18.3750138, -0.16834174], [-1.22877075, -0.16834174, -20.02978575]]" pbc="T T T"
Ti       2.54403889       9.25356827      22.29859325      -0.00382694       0.00115089       0.00202295
Ti       5.08641087       4.38558257      -0.00289268      -0.00508824       0.00080184       0.00051012
Ti       1.27142936       1.88039809       0.61563458      -0.00023816      -0.00332527       0.00185668
Ti       3.81628541       6.75313995       0.61653536       0.00340924      -0.00476878       0.00043600
Ti       2.71002652       4.07823130       1.38380435       0.00107439      -0.00078944       0.00184440
Ti       0.16594747       8.95226626       1.38947827      -0.00039399      -0.00173910       0.00218895
Ti       1.04173369       6.22329540       2.12136656      -0.00081431      -0.00033750       0.00170666
Ti       3.58499412       1.35087956       2.11906091       0.00038043       0.00314623      -0.00044619
Ti       0.22751856       3.50434464       2.76551233      -0.00249103       0.00090800       0.00131207
Ti       2.76951942       8.37515581       2.76648984       0.00011585       0.00163596      -0.00101297
Ti       1.10692575       0.87348491       3.51268525       0.00195486       0.00216318      -0.00106571
Ti       3.65043245       5.74541607       3.50005778       0.00237788       0.00157253      -0.00058355
Ti       2.76342193       3.10788837       4.18371352      -0.00091259       0.00002755       0.00000128
Ti       0.21420791       7.97888774       4.19536000      -0.00087635       0.00196636      -0.00112246
Ti       3.61579145       0.43531019       4.87048781      -0.00175866      -0.00121930      -0.00099722
Ti       1.06990689       5.30959904       4.86426502      -0.00203109      -0.00163847      -0.00057332
Ti       2.75471016       7.52084542       5.58340015       0.00341159      -0.00148629      -0.00593360
Ti       0.21800702       2.65662146       5.58469016      -0.00025851       0.00032099      -0.00004375
Ti       3.61490317       4.86682168       6.29407909      -0.00147249      -0.00029062      -0.00078568
Ti       1.07027503       9.72732484       6.31979064      -0.00106844       0.00186551      -0.00225743
Ti       0.20755284       7.07361840       6.98492457      -0.00056549       0.00157896      -0.00262201
Ti       2.75775728       2.20120871       6.96119673      -0.00209951       0.00117344       0.00264801
Ti       1.11006992       4.44308183       7.67119909       0.00098891      -0.00288708      -0.00168592
Ti       3.64168909       9.29063850       7.67477353       0.00044699       0.00270187      -0.00474565
Ti       0.23270631       1.79788264       8.37644741      -0.00045380       0.00036233      -0.00375365
Ti       2.76523765       6.66890548       8.39501221      -0.00117182      -0.00170428      -0.00449744
Ti       1.03011906       8.81898629       9.10269163       0.00256776       0.00282199      -0.00555358
Ti       3.61488476       3.95824266       9.02477181      -0.00698175      -0.00568873       0.00231331
Ti       2.72790227       1.24604047       9.75233059       0.00282226       0.00348466      -0.00159946
Ti       0.13858177       6.11087626       9.80786885       0.00682793       0.00018759      -0.00455820
Ti       3.74586683       8.31537308      10.55623601       0.00457531       0.00279607      -0.00043580
Ti       1.29208188       3.42710604      10.52487595       0.00211629       0.00077821      -0.00272592
Ti       0.01783883       0.92633931      11.15417081      -0.00474790      -0.00295803      -0.00200519
Ti       2.56892603       5.78666611      11.14913804      -0.00577096      -0.00419048      -0.00083905
Ti       3.84613905       3.41678980      11.78766861      -0.00554248      -0.00037322      -0.00068219
Ti       1.26665420       8.32439459      11.86304431       0.00048745      -0.00153117      -0.00376116
Ti       2.39312925       1.28731801      12.51986446       0.00144045      -0.00104781       0.00223534
Ti       4.95574060       6.11310727      12.56987642      -0.00020527      -0.00139035      -0.00012582
Ti       1.47523730       3.97423642      13.26955833      -0.00405606      -0.00070321      -0.00144133
Zn       4.00838232       8.84370788      13.24922279       0.00217420       0.00178173      -0.00527315
Ti       4.86713574       1.73578098      13.90336189       0.00046275       0.00037394      -0.00146832
Ti       2.39024365       6.65581914      13.96577727      -0.00262597       0.00250103      -0.00461843
Ti       1.50400162       9.30216456      14.61638439      -0.00123449      -0.00072387       0.00332327
Ti       3.99496643       4.44896961      14.61417686       0.00314800       0.00097465       0.00299978
Ti       4.92715514       7.07804693      15.29161181      -0.00492376       0.00104823       0.00167800
Ti       2.31954111       2.21475964      15.32502013       0.00122514      -0.00019743       0.00702358
Ti       1.46861014       4.86408677      16.01666579      -0.00290555       0.00063401       0.00370937
Ti       3.98107353       9.71875459      15.98184695       0.00174583      -0.00001917       0.00956114
Ti       2.31401598       7.51013281      16.73559576       0.00267776       0.00249674       0.00235820
Ti       4.85366114       2.64564247      16.70825083       0.00154626       0.00241277       0.00235776
Ti       4.01757214       5.31387009      17.40725500       0.00069583      -0.00224728      -0.00004933
Ti       1.45829526       0.43402705      17.40374570       0.00034865      -0.00240075       0.00223985
Ti       4.86897817       7.98004343      18.10914851      -0.00493858       0.00178478      -0.00394258
Ti       2.32352267       3.10206334      18.12004655       0.00125629       0.00130870      -0.00040837
Ti       1.43807782       5.74593071      18.80714795      -0.00132939      -0.00261433       0.00468482
Ti       3.97682465       0.87572399      18.78947944       0.00272389      -0.00348308      -0.00249162
Ti       2.31578247       8.37884117      19.53381868      -0.00001630       0.00099394       0.00363182
Ti       4.85962452       3.51026614      19.51224902       0.00251292       0.00182656       0.00624288
Ti       1.48131075       1.33794266      20.17048588       0.00115347      -0.00316298      -0.00008289
Ti       4.02953425       6.21552755      20.17210920       0.00340403       0.00296389       0.00287490
Ti       4.91043188       8.93066957      20.90204751       0.00457733      -0.00042104       0.00074875
Ti       2.36093401       4.05554920      20.90367821       0.00649152       0.00072918       0.00049122
Ti       3.81840880       1.87232439      21.66572925       0.00074684      -0.00058655       0.00158998
Ti       1.27165210       6.73916667      21.67502992      -0.00108843       0.00065131      -0.00040217
