64
Lattice="5.088765 0.0 0.0 0.0 9.739025 0.0 0.0 0.0 22.303587" Properties=species:S:1:pos:R:3:forces:R:3 job_name=T2-Zn-Zn-32-d-0.00 GB_type=T2 element=Zn system=Zn-32-d-0.00 distance=0.0 energy=-488.91069399 stress_kbar_3x3="_JSON [[-3.96622648, -0.00680762, 4.12149614], [-0.00680766, -17.45037272, 0.00886638], [4.12149612, 0.00886638, -18.17688038]]" pbc="T T T"
Ti       2.54457613       9.28209557       0.00017102      -0.00033638      -0.00373136       0.00001774
Ti       0.00020431       4.40806245       0.00020759       0.00021012       0.00612131      -0.00041965
Ti       1.26621398       1.90496878       0.60802850       0.00102909       0.00317033       0.00025698
Ti       3.81263291       6.77332872       0.60298953       0.00261070       0.00471511      -0.00068078
Ti       2.69464592       4.09961336       1.39130753       0.00110474       0.00040759       0.00066746
Ti       0.15084555       8.97299163       1.39129398       0.00173779      -0.00667847      -0.00506031
Ti       1.01073570       6.23662784       2.13170995       0.00039806      -0.00009294      -0.00383734
Ti       3.55400023       1.36656357       2.13245422       0.00336308       0.00255258       0.00100063
Ti       0.20619338       3.50787711       2.76868779       0.00089523       0.00242391       0.00575739
Ti       2.75249887       8.38108449       2.76075935      -0.00181035      -0.00030711      -0.00353294
Ti       1.07955091       0.88116006       3.50898003      -0.00194835       0.00154195       0.00024128
Ti       3.62910454       5.74857218       3.49995811      -0.00505581      -0.00318983      -0.00267549
Ti       2.72288005       3.11971550       4.20644407      -0.00481405       0.00500890      -0.00406543
Ti       0.17725813       7.99564572       4.20341378      -0.00215269       0.00347063      -0.00370811
Ti       3.56103428       0.45392459       4.85530717       0.00126065       0.00022305       0.00823623
Ti       1.01928933       5.31676505       4.85593228      -0.00615360       0.00289519      -0.00100942
Ti       2.71724441       7.52024764       5.56000923      -0.00211773       0.00320863       0.00289228
Ti       0.17516482       2.65014051       5.58944216      -0.00110940      -0.00091640       0.00145900
Ti       3.56664025       4.87769564       6.31368878      -0.00142149      -0.00193907       0.00220262
Ti       1.03139756       0.00388189       6.32908780      -0.00592613       0.00239346       0.00147376
Ti       0.17040606       7.06836782       6.98231508      -0.00572066       0.00203634       0.00591250
Ti       2.71214211       2.20511094       6.99674167      -0.00767101       0.00178929       0.00090439
Ti       1.06393701       4.44903622       7.63997669      -0.00604546       0.00760465      -0.00154518
Ti       3.61314719       9.31840347       7.60229738      -0.00030478      -0.00079324      -0.00325929
Ti       0.16009554       1.84176201       8.42256012      -0.00822323       0.00544703       0.00537206
Ti       2.71481544       6.73405149       8.39014304      -0.00143103       0.00149667      -0.00298153
Ti       0.91432077       8.86638599       9.05132010      -0.01069469      -0.00678953      -0.00197911
Ti       3.47873334       3.99156540       9.01803664      -0.00374529       0.00590063       0.00397732
Ti       2.80299389       1.16159368       9.76494479       0.00662094      -0.00372854       0.00731209
Ti       0.17178013       6.05797786       9.77879149      -0.00109800      -0.00581018       0.00505883
Ti       3.78825060       8.18054680      10.59306303       0.01265907      -0.01203947      -0.00308480
Ti       1.27171999       3.29916236      10.62161742      -0.01426783      -0.00699749       0.00686738
Zn       0.00004262       0.83469818      11.15169976       0.00018756       0.00498263      -0.00005238
Ti       2.54441492       5.70297205      11.15172302      -0.00009724      -0.01857540      -0.00005492
Ti       3.81714105       3.29914070      11.68176216       0.01437284      -0.00696647      -0.00694011
Ti       1.30061961       8.18052196      11.71038636      -0.01279689      -0.01190205       0.00299969
Ti       2.28590386       1.16155187      12.53843279      -0.00710093      -0.00381497      -0.00750738
Ti       4.91704329       6.05793560      12.52458826       0.00117241      -0.00565689      -0.00518457
Ti       1.61016527       3.99149933      13.28534969       0.00344463       0.00584032      -0.00400257
Ti       4.17455921       8.86640415      13.25209624       0.01067106      -0.00707750       0.00190225
Ti       4.92873899       1.84175914      13.88075243       0.00827729       0.00529848      -0.00526555
Ti       2.37400069       6.73401603      13.91321143       0.00154476       0.00158138       0.00316517
Ti       1.47568844       9.31837695      14.70105611       0.00045331      -0.00094675       0.00308367
Ti       4.02492702       4.44894954      14.66334948       0.00599871       0.00785695       0.00157429
Ti       4.91850557       7.06826572      15.32096528       0.00589519       0.00192497      -0.00591078
Ti       2.37677853       2.20497597      15.30650844       0.00778500       0.00163593      -0.00077144
Ti       1.52223012       4.87752717      15.98958720       0.00143204      -0.00190379      -0.00184440
Ti       4.05747449       0.00374300      15.97424685       0.00582854       0.00218174      -0.00136844
Ti       2.37158643       7.52008930      16.74317624       0.00205604       0.00308721      -0.00275413
Ti       4.91368260       2.64993850      16.71372432       0.00119260      -0.00085256      -0.00143383
Ti       4.06962998       5.31662330      17.44732396       0.00635835       0.00276334       0.00133099
Ti       1.52787611       0.45373729      17.44790828      -0.00123271       0.00012170      -0.00744454
Ti       4.91154622       7.99544857      18.09995314       0.00216825       0.00342708       0.00426350
Ti       2.36596123       3.11952568      18.09688017       0.00469035       0.00494846       0.00442901
Ti       1.45982422       5.74852700      18.80341218       0.00530521      -0.00310187       0.00278398
Ti       4.00935624       0.88111418      18.79435015       0.00222869       0.00139985      -0.00008137
Ti       2.33661063       8.38077851      19.54259419       0.00145539      -0.00033256       0.00366920
Ti       4.88291137       3.50754818      19.53462829      -0.00087620       0.00235703      -0.00558339
Ti       1.53488615       1.36606034      20.17110065      -0.00336433       0.00221054      -0.00120812
Ti       4.07808320       6.23615160      20.17186347      -0.00016041      -0.00048832       0.00368977
Ti       4.93761144       8.97228821      20.91194934      -0.00187755      -0.00709623       0.00431492
Ti       2.39381610       4.09886062      20.91190362      -0.00120741      -0.00002094      -0.00121436
Ti       3.82298120       1.90460198      21.69544877      -0.00108095       0.00333824      -0.00081539
Ti       1.27652211       6.77307773      21.70044725      -0.00256507       0.00438683       0.00046065
