64
Lattice="5.088765 0.0 0.0 0.0 9.739025 0.0 0.0 0.0 22.303587" Properties=species:S:1:pos:R:3:forces:R:3 job_name=T2-Zr-Zr-39-d-2.12 GB_type=T2 element=Zr system=Zr-39-d-2.12 distance=2.12 energy=-495.81556905 stress_kbar_3x3="_JSON [[5.50077058, -0.17276579, 0.05041972], [-0.17276579, -10.06260373, 0.78411421], [0.0504197, 0.78411422, -8.51990946]]" pbc="T T T"
Ti       2.54584787       9.25800665       0.01087322       0.00318565       0.00627841       0.00091186
Ti       0.00380214       4.38897848       0.01403656      -0.00103142       0.00466064       0.00143013
Ti       1.27274452       1.88235362       0.62771750       0.00194666       0.00532994      -0.00631395
Ti       3.81843738       6.75133643       0.62971761       0.00175998       0.00343628      -0.00195331
Ti       2.70836639       4.07895820       1.39249645      -0.00015857       0.00296892      -0.00792976
Ti       0.16573014       8.94739252       1.39517650       0.00180672       0.00199516      -0.00829461
Ti       1.05063773       6.21828528       2.12199784      -0.00035870       0.00216438      -0.00228757
Ti       3.59261010       1.35386324       2.11835248      -0.00305039       0.00379337      -0.00677396
Ti       0.22243568       3.50532325       2.76389058       0.00605661       0.00266082       0.00104263
Ti       2.76702760       8.37481385       2.76397893       0.00607421       0.00058162       0.00112458
Ti       1.11071357       0.87650521       3.48674041       0.00090159       0.00363636       0.00602109
Ti       3.65773073       5.74104637       3.49569819       0.00141218      -0.00156797       0.00517281
Ti       2.75416837       3.10840425       4.17860700       0.00025855       0.00298909       0.00786511
Ti       0.21112282       7.97683306       4.17294726       0.00194930      -0.00023844       0.00738008
Ti       3.62172292       0.44161447       4.83849856       0.00263273       0.00116732       0.00386210
Ti       1.07703894       5.30542100       4.84699865       0.00395220      -0.00240880       0.00620613
Ti       2.75779380       7.52211216       5.56194752      -0.00072127      -0.00262743       0.00239970
Ti       0.20849612       2.65434819       5.56474103       0.00068121       0.00006742       0.00096173
Ti       3.61822845       4.85787542       6.28276522       0.00524245      -0.00452489      -0.00083053
Ti       1.07509698       0.00269624       6.25741995       0.00268972      -0.00109305      -0.00672135
Ti       0.21335295       7.06126479       6.93737700       0.00261323      -0.00855654      -0.00807117
Ti       2.75041527       2.19578728       6.95563298      -0.00175942      -0.00296374      -0.00936401
Ti       1.11073233       4.42299666       7.64088251       0.00027255      -0.00392784      -0.00703387
Ti       3.65960999       9.31105956       7.62025711       0.00478533      -0.00312948      -0.00645927
Ti       0.22268923       1.80154360       8.36427554       0.00523906      -0.00051425      -0.00306561
Ti       2.77890020       6.64447151       8.34716445       0.00609609      -0.00562179      -0.00257612
Ti       1.07754593       8.82008572       8.95492354      -0.00485959      -0.00607960      -0.00446202
Ti       3.59433836       3.94632140       9.03783401      -0.00076918      -0.00709111       0.00586645
Ti       2.66451973       1.21519649       9.76529214      -0.00399334      -0.00903614       0.00643350
Ti       0.20721664       6.10324355       9.73053069       0.00667709      -0.01062831      -0.00017941
Ti       3.81952488       8.29427653      10.39420583       0.00957283      -0.01353738       0.00353037
Ti       1.28061197       3.43351781      10.53664481      -0.00083228      -0.00649407       0.00939052
Ti       0.01924347       0.92366009      11.04654216      -0.00288797      -0.01400580      -0.00279861
Ti       2.56007498       5.78850219      11.16272765       0.00008464      -0.01442036      -0.00034683
Ti       3.82987885       3.41011211      11.77730416       0.00223339      -0.00875261      -0.00345749
Ti       1.28781382       8.26082627      11.67153477      -0.01170843       0.00099850       0.00175884
Ti       2.25834772       1.29780009      12.54836495      -0.00923153      -0.00267585      -0.00650743
Ti       4.96088397       6.02690851      12.50673512      -0.00149961       0.00648076      -0.00405282
Ti       1.52526036       3.97118066      13.28734617       0.00314009       0.00591619      -0.00194783
Zr       4.02954018       8.83368639      13.23120920       0.00548069       0.00366071      -0.00717158
Ti       4.86394313       1.87342353      13.96713941      -0.00128732      -0.00234346       0.00328392
Ti       2.23984299       6.65098037      13.94942754      -0.00174202       0.00229551       0.00106916
Ti       1.42724232       9.32056470      14.71941587      -0.00952813      -0.00231234       0.00251113
Ti       3.98282248       4.47464746      14.67673056      -0.00128997       0.00436034       0.00989848
Ti       4.87904206       7.06245030      15.41780479      -0.00219536       0.00749336       0.00016505
Ti       2.34631174       2.20508024      15.35336477      -0.00317058       0.00761408       0.00960819
Ti       1.46843450       4.85323741      16.03730360      -0.00260050       0.00180378       0.00040023
Ti       4.01651137       0.02048981      16.08134948      -0.00338928       0.00183068       0.00525231
Ti       2.33724134       7.51004025      16.74754671       0.00503577       0.00344375       0.00403611
Ti       4.86836919       2.66059855      16.74742720      -0.00361236       0.00535859       0.00202848
Ti       4.01557379       5.30472168      17.47978316      -0.00197832       0.00324533      -0.00317712
Ti       1.47207631       0.43931114      17.48260333       0.00006530       0.00597379      -0.00562023
Ti       4.86983874       7.97975228      18.15080224      -0.00249055       0.00459122      -0.00441439
Ti       2.32869336       3.10629616      18.14294294      -0.00119317       0.00665509      -0.00620049
Ti       1.43294426       5.74775061      18.82083389      -0.00109050       0.00418381      -0.00296940
Ti       3.98337977       0.88053867      18.83711140      -0.00031008       0.00680684      -0.00604947
Ti       2.32470885       8.37351020      19.55520031      -0.00269459       0.00116919       0.00050770
Ti       4.87276434       3.50604109      19.55441869      -0.00398526       0.00430399      -0.00111106
Ti       1.50004905       1.34949423      20.20379341      -0.00195375       0.00271655       0.00656459
Ti       4.04150196       6.21505990      20.20461914       0.00083123      -0.00065078       0.00592400
Ti       4.92251733       8.94150548      20.92593268      -0.00353295      -0.00034163       0.00549710
Ti       2.37531166       4.07553307      20.91878205      -0.00182146      -0.00167337       0.00575948
Ti       3.81952208       1.88341639      21.69493956       0.00066517       0.00314024       0.00236473
Ti       1.27667656       6.74858214      21.69340087      -0.00061435       0.00144498       0.00191297
