64
Lattice="5.088765 0.0 0.0 0.0 9.739025 0.0 0.0 0.0 22.303587" Properties=species:S:1:pos:R:3:forces:R:3 job_name=T2-Zn-Zn-33-d-0.00 GB_type=T2 element=Zn system=Zn-33-d-0.00 distance=0.0 energy=-488.90987691 stress_kbar_3x3="_JSON [[-3.90030146, -0.02328795, 4.02199344], [-0.02328799, -17.43057348, 0.02225534], [4.02199342, 0.02225532, -18.156771]]" pbc="T T T"
Ti       2.54471791       9.27371354       0.00048256       0.00038166       0.00242537       0.00046264
Ti       0.00038897       4.40757758       0.00057875       0.00088678      -0.00138746      -0.00032370
Ti       1.26922804       1.89947500       0.60613384      -0.00100747       0.00385051      -0.00334388
Ti       3.81171526       6.77025601       0.61084152       0.00151078       0.00242009      -0.00142578
Ti       2.69727896       4.09794803       1.39245063      -0.00012357      -0.00220156      -0.00360912
Ti       0.15268471       8.96470285       1.39266570      -0.00352859       0.00149129      -0.00379846
Ti       1.01582737       6.23384563       2.13343325      -0.00409255       0.00554785      -0.00324367
Ti       3.56004303       1.36395957       2.13227472      -0.00151922       0.00475094      -0.00919048
Ti       0.21034158       3.51027606       2.76314769      -0.00399411       0.00127306      -0.00774464
Ti       2.75304646       8.37739776       2.77085226      -0.00063050       0.00029132       0.00016994
Ti       1.08720143       0.87809024       3.49971049       0.00071749      -0.00219446      -0.00304840
Ti       3.62747386       5.74999700       3.50892362       0.00047224       0.00112484      -0.00077850
Ti       2.72503135       3.12482245       4.20286335      -0.00301453       0.00480156      -0.00103129
Ti       0.18138347       7.98878112       4.20473047      -0.00474366       0.00215355      -0.00130726
Ti       3.56756062       0.44858947       4.85587899      -0.00170511      -0.00329747       0.00057113
Ti       1.02116600       5.32199601       4.85659966       0.00039271       0.00257632       0.00110661
Ti       2.72362789       7.52046285       5.58920288      -0.00060746       0.00059258      -0.00903434
Ti       0.17667281       2.65077442       5.55942240      -0.00383752       0.00079620       0.00067680
Ti       3.57925493       4.87417953       6.32789648      -0.00383508      -0.00780488       0.00509720
Ti       1.02662493       0.00891345       6.31137590      -0.00723342      -0.00237628       0.00315660
Ti       0.17115614       7.07638201       6.99650733      -0.00315519       0.00129343      -0.00152093
Ti       2.71843046       2.20011280       6.98354870       0.00358476       0.00366394       0.00330531
Ti       1.07037441       4.44690582       7.60435316      -0.00498702       0.00325934      -0.00496954
Ti       3.61027277       9.32068533       7.63996447       0.00140703       0.00851369       0.00815313
Ti       0.17310560       1.86334187       8.38848779      -0.00482935      -0.00625484       0.00617870
Ti       2.70603452       6.71308935       8.42311403       0.00195492      -0.00389571       0.00101268
Ti       0.93865522       8.86569569       9.01977932      -0.01278098       0.00746993      -0.00124383
Ti       3.46542748       3.99642385       9.05669952      -0.00568269      -0.00049455      -0.00799229
Ti       2.71828103       1.19452554       9.78052842       0.00199072      -0.00863511       0.00022069
Ti       0.26194155       6.03793342       9.76559815      -0.00102894      -0.00715546       0.00451884
Ti       3.81466398       8.17488699      10.62130674       0.01001043       0.00360433       0.00110510
Ti       1.24290160       3.31446831      10.58645758       0.01001342      -0.00108507       0.01291197
Ti       0.00004361       0.83880612      11.15213426      -0.00007771      -0.01573077      -0.00017781
Zn       2.54434795       5.70791278      11.15168818       0.00053384      -0.00892579       0.00054057
Ti       3.84570211       3.31421357      11.71710081      -0.01030468       0.00026561      -0.01337925
Ti       1.27427760       8.17461956      11.68241560      -0.01038250       0.00331977      -0.00104767
Ti       2.37106927       1.19393042      12.52288092      -0.00180343      -0.00889071      -0.00009647
Ti       4.82677959       6.03758269      12.53789050       0.00139158      -0.00773743      -0.00399579
Ti       1.62355277       3.99617582      13.24674476       0.00490170       0.00063240       0.00767395
Ti       4.15037121       8.86545413      13.28380946       0.01276280       0.00680886       0.00253287
Ti       4.91570086       1.86342372      13.91474952       0.00485420      -0.00654920      -0.00495126
Ti       2.38280449       6.71277938      13.88022920      -0.00262463      -0.00422451      -0.00120931
Ti       1.47856719       9.32069666      14.66331712      -0.00125419       0.00895570      -0.00769546
Ti       4.01825898       4.44689207      14.69890963       0.00602342       0.00354769       0.00456022
Ti       4.91793736       7.07612394      15.30674792       0.00291904       0.00100760       0.00053867
Ti       2.37062520       2.20006671      15.31954504      -0.00378800       0.00182173      -0.00309855
Ti       1.50951151       4.87376900      15.97513614       0.00339440      -0.00748969      -0.00607438
Ti       4.06222629       0.00866170      15.99195467       0.00718581      -0.00202580      -0.00449181
Ti       2.36511815       7.52001408      16.71380471       0.00113904       0.00083126       0.00736544
Ti       4.91211085       2.65046660      16.74358888       0.00379082       0.00002728      -0.00191829
Ti       4.06778697       5.32166004      17.44653890      -0.00026196       0.00247882      -0.00151709
Ti       1.52142539       0.44826011      17.44739723       0.00151438      -0.00264772      -0.00197318
Ti       4.90730059       7.98853345      18.09871562       0.00451442       0.00143567       0.00139671
Ti       2.36364285       3.12450599      18.10054993       0.00282993       0.00452461       0.00035490
Ti       1.46139591       5.75003657      18.79432874      -0.00087540       0.00082072       0.00202168
Ti       4.00173690       0.87809594      18.80374041      -0.00056302      -0.00223689       0.00242713
Ti       2.33636685       8.37679777      19.53241747       0.00071844      -0.00038678       0.00079587
Ti       4.87901261       3.50949035      19.54012341       0.00478511       0.00179558       0.00806283
Ti       1.52870120       1.36275372      20.17146899       0.00078661       0.00473674       0.01025648
Ti       4.07279633       6.23273747      20.17027898       0.00523376       0.00526066       0.00388604
Ti       4.93509605       8.96288304      20.91002478       0.00349838       0.00060572       0.00420018
Ti       2.39064273       4.09604935      20.91025201      -0.00146556      -0.00204883       0.00454475
Ti       3.82028017       1.89859859      21.69726334       0.00175224       0.00342071       0.00416474
Ti       1.27786840       6.76943384      21.69250236      -0.00211484       0.00147970       0.00126206
