64
Lattice="5.088765 0.0 0.0 0.0 9.739025 0.0 0.0 0.0 22.303587" Properties=species:S:1:pos:R:3:forces:R:3 job_name=T2-Zr-Zr-38-d-2.12 GB_type=T2 element=Zr system=Zr-38-d-2.12 distance=2.12 energy=-495.81568698 stress_kbar_3x3="_JSON [[5.43684604, -0.2023557, -0.00402791], [-0.20235573, -10.10445878, 0.75207389], [-0.00402793, 0.7520739, -8.49811097]]" pbc="T T T"
Ti       2.54833987       9.25767119       0.01484129      -0.00808366       0.00266130       0.00605781
Ti       0.00143956       4.38825614       0.01278253       0.00205145       0.00385655      -0.00746837
Ti       1.27459448       1.88142018       0.62927709      -0.00290296       0.00488363       0.00589981
Ti       3.81776708       6.75097014       0.62619351      -0.00087307       0.01001382       0.00554175
Ti       2.70869862       4.07687327       1.39421609       0.00529035       0.00364013      -0.00211456
Ti       0.16280828       8.94781071       1.39241544       0.00086752       0.00446789      -0.00128714
Ti       1.04861746       6.22367375       2.11660847      -0.00708698       0.00391174       0.00244217
Ti       3.59380749       1.34737403       2.12027472       0.00305185       0.00498845       0.00922671
Ti       0.22261856       3.50552372       2.76248905       0.00336932      -0.00528386       0.00103631
Ti       2.76617508       8.37480245       2.76314952       0.01048842       0.00020217      -0.00028859
Ti       1.11219444       0.87099328       3.49519249       0.00454552      -0.00272344      -0.00626122
Ti       3.65477444       5.74571786       3.48669797       0.00204582       0.00270742       0.00090843
Ti       2.75571444       3.10670233       4.17159177       0.00136063      -0.00043652       0.00475884
Ti       0.20894583       7.97703866       4.17846701       0.00311985       0.00604259      -0.00338014
Ti       3.62166849       0.43524286       4.84699058       0.00094101      -0.00057518      -0.00548110
Ti       1.07778139       5.31101607       4.83902785      -0.00139414      -0.00064361      -0.00382821
Ti       2.75301065       7.52484819       5.56526001      -0.00039597      -0.00565549      -0.00657697
Ti       0.21359962       2.65279860       5.55948086      -0.00341939       0.00106053       0.01122806
Ti       3.61884766       4.87303097       6.25684455       0.00589837      -0.00028988      -0.00153149
Ti       1.07366968       9.72794686       6.28110723       0.00455217      -0.00173396       0.00694470
Ti       0.20667727       7.06697264       6.95380731      -0.00549166      -0.01275482       0.00618211
Ti       2.75795102       2.19171970       6.93618055       0.00196106       0.00331469       0.00032648
Ti       1.11391744       4.44103593       7.61992334       0.00844233       0.00494806       0.00225263
Ti       3.65430999       9.29354721       7.64099681       0.00299395      -0.00576178      -0.00448811
Ti       0.23569437       1.77562416       8.34617318       0.00174372       0.00310595       0.00774439
Ti       2.76844790       6.67323741       8.36459430      -0.00469921      -0.01026364      -0.00347097
Ti       1.04960000       8.81584473       9.03863806      -0.00094547      -0.00197529       0.00028884
Ti       3.61947890       3.95195908       8.95633512       0.00507041      -0.00617294      -0.00660279
Ti       2.75352292       1.23614880       9.73072687      -0.00648236      -0.00406386      -0.00223225
Ti       0.11929807       6.08641015       9.76416749       0.00187726      -0.01793938       0.00582875
Ti       3.82389935       8.30387687      10.53762508       0.00234687      -0.00910819      -0.00003616
Ti       1.27639891       3.42442762      10.39505494      -0.00428804      -0.00997629      -0.01003240
Ti       0.01339455       0.91906250      11.16442274       0.01444992       0.00217311      -0.00451227
Ti       2.56394212       5.79508280      11.04673540      -0.00512266      -0.01589446      -0.00958379
Ti       3.83170858       3.39312628      11.67037782      -0.00174942      -0.00818304      -0.00509621
Ti       1.28457977       8.28149141      11.77684871       0.00367618      -0.01706734       0.00081070
Ti       2.41782867       1.15694413      12.50510198       0.00070186       0.01064916       0.00077155
Ti       4.80437778       6.16833424      12.54560555      -0.01320318      -0.00927216       0.00090183
Zr       1.49041500       3.96418532      13.22890263      -0.00056552      -0.00401519       0.00386551
Ti       4.06889545       8.84104054      13.28707996       0.00654006       0.00492973       0.00852928
Ti       4.78507422       1.78135001      13.94888786      -0.01191553       0.00203485      -0.00061883
Ti       2.31888110       6.74143788      13.96490109       0.00176912       0.00976655       0.01089452
Ti       1.43934308       9.34196392      14.67774897      -0.00594912       0.01385056       0.00261356
Ti       3.97125249       4.45164999      14.71918940      -0.00162508      -0.00378447       0.00752854
Ti       4.88993234       7.07716180      15.35508981      -0.00366094      -0.00785626       0.00198445
Ti       2.33350584       2.19146831      15.41641053       0.00708688       0.00843354       0.00509241
Ti       1.47124300       4.88992177      16.08052018       0.00226177       0.00051479       0.00941704
Ti       4.01274492       9.72329074      16.03746549       0.00087841       0.00871934      -0.00109880
Ti       2.32461929       7.52933625      16.74924088      -0.00524139       0.00321890      -0.00441751
Ti       4.88035755       2.64056046      16.74853620       0.00783631       0.00228788      -0.00167981
Ti       4.01649582       5.30793465      17.48223205       0.00181613       0.00108433       0.00029578
Ti       1.47130945       0.43350823      17.48007505      -0.00052539       0.00799578      -0.00003024
Ti       4.87342875       7.97504150      18.14315909      -0.00146684       0.00294573      -0.00097537
Ti       2.32496169       3.10897131      18.15026583      -0.00191992       0.00546035       0.00080450
Ti       1.43942124       5.74879540      18.83705690      -0.00170032       0.00390780      -0.00154848
Ti       3.97891578       0.87677922      18.82209436      -0.00711145       0.00505433      -0.00526593
Ti       2.32690002       8.37481186      19.55686634       0.00129158      -0.00070992      -0.00645606
Ti       4.86776173       3.50232345      19.55862886      -0.00230970       0.00553447      -0.01119356
Ti       1.49972034       1.34640424      20.20635784      -0.00695340      -0.00460667      -0.00335744
Ti       4.04709710       6.21819779      20.20478631      -0.01164967       0.00247129       0.00152576
Ti       4.91949492       8.94443612      20.92133781       0.00376520       0.00051111      -0.00174566
Ti       2.37810096       4.07240698      20.92897187       0.00034986       0.00164704      -0.00844758
Ti       3.82033230       1.87911153      21.69558846       0.00345713       0.00324924       0.00087276
Ti       1.27526721       6.75303856      21.69644283       0.00083417       0.00050285      -0.00146797
