64
Lattice="5.088765 0.0 0.0 0.0 9.739025 0.0 0.0 0.0 22.303587" Properties=species:S:1:pos:R:3:forces:R:3 job_name=T2-Zn-Zn-40-d-2.77 GB_type=T2 element=Zn system=Zn-40-d-2.77 distance=2.77 energy=-488.90124025 stress_kbar_3x3="_JSON [[-2.89653325, -0.18739871, 0.73021701], [-0.1873987, -19.37111768, -0.7421287], [0.73021701, -0.74212871, -19.63303749]]" pbc="T T T"
Ti       2.55217506       9.25247485      22.29743982       0.00365068       0.00348197      -0.00611704
Ti       0.00173790       4.38483347      22.28688399      -0.00138640       0.00131699       0.00323270
Ti       1.27632246       1.87872996       0.61636931       0.00589272      -0.00000861      -0.00358999
Ti       3.81608156       6.74724713       0.61512267       0.00488733       0.00035549      -0.00723853
Ti       2.71909577       4.07319986       1.39397779       0.00066172      -0.00022665      -0.00241876
Ti       0.17099935       8.94315454       1.38757222      -0.00082339      -0.00283761      -0.01465438
Ti       1.03794667       6.21781351       2.11693141      -0.00095153      -0.00195960      -0.00696674
Ti       3.58810690       1.35019484       2.12171110      -0.00007799       0.00199483      -0.00442107
Ti       0.22433547       3.50305535       2.76704761      -0.00044002       0.00333840      -0.00572120
Ti       2.76645016       8.37053868       2.76642091       0.00326334      -0.00583566      -0.00705164
Ti       1.10744753       0.87714821       3.50137907       0.00044501      -0.00054721      -0.00517878
Ti       3.64884068       5.74586862       3.50920614       0.00100946      -0.00515792      -0.00761532
Ti       2.76040989       3.10515422       4.19661062       0.00089655       0.00666661       0.00361084
Ti       0.21202322       7.97707583       4.18323445       0.00399537       0.00094208      -0.00460525
Ti       3.61841097       0.44202758       4.86470197       0.00054240       0.00651064       0.00033852
Ti       1.07142447       5.30732040       4.85435969       0.00243407      -0.00135522      -0.00628808
Ti       2.75401127       7.52985354       5.58937945       0.00187068      -0.00145910       0.00313957
Ti       0.21445900       2.65519873       5.58947375       0.00285653       0.00049855       0.00329321
Ti       3.61000172       4.86675296       6.30244982      -0.00153547      -0.00167410       0.01123999
Ti       1.06485899       9.73828946       6.28721483      -0.00063898      -0.00202490      -0.00150807
Ti       0.20767660       7.07115191       6.96241084       0.00131942       0.00077263       0.00739616
Ti       2.75709833       2.19371904       6.99754291       0.00240877       0.00764355       0.00531521
Ti       1.10567668       4.43582382       7.65530899       0.00009079       0.00182665       0.00914678
Ti       3.65372412       9.31385541       7.68092478       0.00214768      -0.00089298       0.01334042
Ti       0.24431756       1.78724867       8.39910853       0.00157628      -0.00099411       0.00391628
Ti       2.76564234       6.67696161       8.40072056       0.00194160      -0.00571985       0.00609069
Ti       1.06776079       8.84244771       9.01806587      -0.00416265      -0.00301103       0.00656335
Ti       3.60213458       3.95171713       9.05078136      -0.00262288       0.00374456      -0.00301461
Ti       2.73964556       1.25728675       9.88675651       0.00511211       0.00184207       0.00446442
Ti       0.15548610       6.11441014       9.74744653      -0.00002079       0.00773063      -0.00722841
Ti       3.83844638       8.32050304      10.53970463       0.00002368      -0.00110151      -0.00253753
Ti       1.24919194       3.47782773      10.49136165       0.00318212      -0.00155667       0.00152179
Ti       0.06890921       0.93597825      11.16218888      -0.01062553      -0.00959942      -0.01067217
Ti       2.54679214       5.80141114      11.15113210      -0.00511763       0.00527089      -0.00703629
Ti       3.80153670       3.41131514      11.82411928      -0.00631043      -0.00217338      -0.01081052
Ti       1.28614240       8.29542134      11.74521890       0.00335750       0.00274910      -0.01113836
Ti       2.33390951       1.23055113      12.64409433       0.00504875      -0.00005238       0.00259731
Ti       4.92498064       6.06609468      12.55106901      -0.00113456      -0.00238043      -0.00622508
Ti       1.40675921       3.99414042      13.25906620       0.00323179      -0.00121890       0.00610050
Ti       4.09688337       8.83599205      13.24852968       0.00542809      -0.00211080      -0.00887494
Zn       4.84141506       1.76488494      13.93043576       0.00111175       0.00338359       0.00038673
Ti       2.34329674       6.71896916      13.90045876      -0.00096994      -0.00524929      -0.00683942
Ti       1.38881949       9.31001758      14.72345695      -0.01069961      -0.00220097       0.00311967
Ti       3.93121031       4.38570270      14.59610635      -0.00792079      -0.00128068       0.00251433
Ti       4.85975951       7.06246522      15.30324239       0.00661429       0.00441125       0.00265691
Ti       2.25433642       2.20878282      15.31435616      -0.00543212       0.00533256      -0.00470629
Ti       1.48421490       4.89401317      15.98729634      -0.00109437      -0.00086618       0.00005008
Ti       3.96504725       9.73616916      15.97042685       0.00297902      -0.00538835      -0.00366058
Ti       2.34157606       7.50904017      16.73902723      -0.00589728      -0.01090862       0.00019994
Ti       4.90605476       2.63201295      16.69543847       0.00493606      -0.00029311       0.00204633
Ti       4.03420777       5.29531174      17.42456031      -0.00109382       0.00057164       0.00257700
Ti       1.49289588       0.42040139      17.45980889      -0.00466932      -0.00006085       0.00221244
Ti       4.87795524       7.97722314      18.07400687       0.00459567      -0.00336236       0.00523321
Ti       2.33909625       3.09269479      18.07064960      -0.00112862       0.01059530       0.00389415
Ti       1.44178695       5.72929420      18.80618868      -0.00326073      -0.00046712       0.00081251
Ti       3.99286729       0.87697315      18.80005429       0.00296376      -0.00504464       0.00298911
Ti       2.32639281       8.36576153      19.53958569      -0.00245768      -0.00653050       0.00926706
Ti       4.86813923       3.50437899      19.51776738      -0.00510902       0.00259203       0.00268148
Ti       1.51251480       1.35544974      20.18298789      -0.00014674       0.00319906       0.00879647
Ti       4.05089614       6.22283952      20.15977653      -0.00013192       0.00460770       0.00406511
Ti       4.93772357       8.94325170      20.89183683      -0.00646536       0.00537042       0.01196363
Ti       2.39405416       4.06558332      20.90103557       0.00085360       0.00140582       0.00369793
Ti       3.82879600       1.87442571      21.68040374       0.00156185      -0.00369810       0.00276770
Ti       1.27466250       6.74424910      21.67928817      -0.00056483       0.00109376       0.00287959
