64
Lattice="5.088765 0.0 0.0 0.0 9.739025 0.0 0.0 0.0 22.303587" Properties=species:S:1:pos:R:3:forces:R:3 job_name=T2-Zr-Zr-53-d-6.97 GB_type=T2 element=Zr system=Zr-53-d-6.97 distance=6.97 energy=-495.78783046 stress_kbar_3x3="_JSON [[6.3838547, -0.29381718, 0.40341563], [-0.29381721, -10.04116016, -0.22117204], [0.40341565, -0.22117201, -9.68576356]]" pbc="T T T"
Ti       2.55333479       9.25156854       0.02554969      -0.00413781      -0.00340803       0.00648276
Ti       5.06310551       4.38103305       0.03233115       0.00352834       0.00167291      -0.00308685
Ti       1.26762464       1.87184229       0.64949365       0.00612042       0.00266430       0.00165070
Ti       3.81034924       6.74621577       0.63505942       0.00224975      -0.00123241      -0.00081953
Ti       2.70725201       4.07368982       1.43456741      -0.00145041       0.00464014      -0.00111900
Ti       0.16112679       8.93644905       1.39712596       0.00037221       0.00363029      -0.01582267
Ti       1.04108728       6.21693090       2.12746127      -0.00222103       0.00167657      -0.00742811
Ti       3.60101948       1.35293605       2.13513987      -0.00388125      -0.00054876      -0.00399208
Ti       0.22130994       3.50523054       2.78948833      -0.00014489       0.00026612      -0.00005402
Ti       2.76876031       8.37638224       2.77476554      -0.00240836       0.00177877      -0.01015308
Ti       1.11012701       0.87024185       3.50021782       0.00152894       0.00036770       0.00404642
Ti       3.65337244       5.74972990       3.51283462      -0.00184315      -0.00460507       0.00303451
Ti       2.75614931       3.10686563       4.20174830      -0.00187447      -0.00131255       0.00279096
Ti       0.21221338       7.98036882       4.19004823      -0.00107619      -0.00139386       0.00836232
Ti       3.61359615       0.43782292       4.86163757       0.00705470       0.00181806       0.00306465
Ti       1.07219977       5.30905418       4.86068528      -0.00122170      -0.00226159       0.00529715
Ti       2.75169271       7.52410402       5.57873498       0.00261680       0.00187383       0.00547593
Ti       0.20970449       2.65248555       5.58021296      -0.00127406       0.00052736       0.00317915
Ti       3.61378863       4.86915182       6.29732030       0.00611311      -0.00014225       0.00219214
Ti       1.06980132       9.73720706       6.29471136       0.00663466       0.00313036       0.00031239
Ti       0.21062961       7.06739297       6.96340406       0.00066403       0.00015110       0.00051313
Ti       2.75657912       2.19917545       6.96359088      -0.00202379       0.00061707      -0.00103464
Ti       1.10850429       4.43462584       7.65362892       0.00442004       0.00017145       0.00097413
Ti       3.65318937       9.30125774       7.65301273      -0.00154190       0.00083575      -0.00290492
Ti       0.22452674       1.80318282       8.37857588       0.00015380      -0.00019153       0.00151923
Ti       2.76877166       6.67422867       8.38757595       0.00202965      -0.00486819       0.00180866
Ti       1.04582055       8.82707547       9.02979452      -0.00786029      -0.00389985       0.00408566
Ti       3.59361771       3.95724128       9.02666600      -0.00397991       0.00193236      -0.00085887
Ti       2.70963726       1.23781445       9.74508130      -0.00046863      -0.00454293       0.00829893
Ti       0.16172652       6.10537149       9.76028654      -0.00531733       0.00252042       0.00395455
Ti       3.81185590       8.29812887      10.52582292       0.00286693       0.00345411       0.00775431
Ti       1.26776782       3.43130424      10.51996998       0.00266178      -0.00110288      -0.00319027
Ti       5.07913445       0.92325479      11.13375983      -0.00424467      -0.00652736      -0.00820114
Ti       2.54817374       5.79478118      11.13244672      -0.00276964       0.00270260       0.00562169
Ti       3.81199398       3.43364011      11.76105036      -0.00146416      -0.00499527      -0.00600603
Ti       1.26589811       8.30095857      11.75882998       0.00237056      -0.00944042      -0.00867280
Ti       2.37059800       1.22245265      12.51134406      -0.00770207      -0.00657517      -0.00197386
Ti       4.92189250       6.10414662      12.53571919      -0.01116431      -0.00447065      -0.01367398
Ti       1.49865479       3.96341712      13.24360084       0.01095277      -0.00307227      -0.01416612
Ti       4.04527432       8.83438598      13.25595298       0.00847554      -0.00381770      -0.00879240
Ti       4.86284919       1.80454753      13.87861634      -0.00128534       0.00949610      -0.00715001
Ti       2.31994593       6.68490315      13.88412625      -0.00327729      -0.00077327      -0.00714967
Ti       1.44196154       9.30013687      14.64552951      -0.00318290      -0.00149608       0.00598235
Ti       3.96974505       4.45194006      14.64762494      -0.00207145      -0.00145239       0.00253091
Ti       4.86780760       7.08800384      15.32006147       0.00979826       0.01046982       0.00499820
Ti       2.32368455       2.18193911      15.25610435      -0.00238268       0.00127787       0.00546121
Ti       1.45248509       4.89191045      15.93305731       0.00883638       0.01161531       0.00116061
Ti       3.99056095       0.00318825      16.00213754       0.00770941      -0.00829615       0.00089694
Ti       2.34365978       7.48637504      16.72459000      -0.01169654      -0.00822255       0.00259055
Ti       4.89234850       2.63193471      16.65925171      -0.00355412      -0.00948698      -0.00121165
Ti       4.11061936       5.33796631      17.42157364      -0.00130938      -0.00431207       0.00686225
Ti       1.48159301       0.38007202      17.40371257       0.00406503      -0.00027814       0.00807800
Ti       4.86103792       7.98175123      18.10583218       0.00997617       0.00177398      -0.00632803
Zr       2.33444310       3.12098006      18.11293697       0.00374089       0.00766047      -0.00023435
Ti       1.43534435       5.80702969      18.86694373      -0.00135504       0.01052134      -0.00759783
Ti       4.05122163       0.84504393      18.82777952      -0.00962046       0.01038948      -0.00739964
Ti       2.32379896       8.40128420      19.55008856      -0.00306917       0.00816316       0.00094976
Ti       4.88299227       3.53357279      19.60846783      -0.01507249       0.00675210       0.00426612
Ti       1.48420842       1.31097064      20.24104726       0.00691512      -0.00630365       0.00592853
Ti       4.01435031       6.22376577      20.18247226       0.00077261      -0.00181503       0.00865359
Ti       4.91677735       8.91947076      20.92678604       0.00585417      -0.00112281       0.00047168
Ti       2.36897100       4.07782324      20.99506982      -0.00057357      -0.00725616       0.00333821
Ti       3.81986661       1.86422047      21.69088874       0.00480043      -0.00530437       0.00618307
Ti       1.27096814       6.73868330      21.70011394      -0.00476205       0.00997750       0.00025021
