64
Lattice="5.088765 0.0 0.0 0.0 9.739025 0.0 0.0 0.0 22.303587" Properties=species:S:1:pos:R:3:forces:R:3 job_name=T2-Zr-Zr-34-d-0.63 GB_type=T2 element=Zr system=Zr-34-d-0.63 distance=0.63 energy=-495.90978846 stress_kbar_3x3="_JSON [[6.92829272, 6.99925937, 0.97163048], [6.99925938, -7.71740197, 1.00347914], [0.97163049, 1.00347915, -7.74824742]]" pbc="T T T"
Ti       2.50605017       9.34597739      22.19781484       0.00020430       0.00710524      -0.00584014
Ti       5.05325670       4.47508511      22.20042072       0.00105506       0.00224705      -0.00936991
Ti       1.21725431       1.88767881       0.60179798      -0.00175283      -0.00242338      -0.00511533
Ti       3.76323423       6.75842793       0.60331318      -0.00475715       0.00224711      -0.00414467
Ti       2.80508113       3.99039715       1.44210480      -0.00310177      -0.00909201       0.00119992
Ti       0.26238544       8.85809379       1.44792323       0.00020840      -0.00484862       0.00082438
Ti       1.00594892       6.08161870       2.08165536      -0.00632899      -0.00793237      -0.00320195
Ti       3.54881252       1.21100142       2.08069668      -0.00802553      -0.01090345      -0.00102540
Ti       0.16214541       3.39550005       2.77259266       0.00068657      -0.01235742       0.00378199
Ti       2.70709440       8.26669490       2.77593910       0.00071873      -0.00789937       0.00192628
Ti       1.10268863       0.81262095       3.51393980      -0.00757310      -0.00854596      -0.00001102
Ti       3.64674072       5.68417770       3.50694361      -0.00467878      -0.00776148       0.00607172
Ti       2.76136960       3.02497218       4.13901379      -0.00432585      -0.00963693       0.00297021
Ti       0.21952005       7.89603678       4.14633330      -0.00626595      -0.00804327       0.00220469
Ti       3.60544696       0.33889240       4.82828740       0.00241973      -0.00323089       0.00161144
Ti       1.05768616       5.21118358       4.82013999       0.00154633      -0.00574761       0.00457675
Ti       2.73747620       7.42190868       5.59855676       0.00081395      -0.01009492      -0.00203862
Ti       0.19899252       2.55980876       5.59515558      -0.00059908      -0.01054071       0.00464382
Ti       3.59369213       4.75606820       6.27133292      -0.00659715      -0.01001103      -0.00181730
Ti       1.06144318       9.61924306       6.28325029      -0.00999875      -0.00339580       0.00186226
Ti       0.15039728       6.96747956       6.88361644       0.01094265      -0.00839847       0.00682430
Ti       2.69674457       2.10080080       6.88687652       0.00915494      -0.00480895       0.00859052
Ti       1.10442098       4.40731145       7.64044069      -0.00322873      -0.01167331       0.00238385
Ti       3.65070829       9.25658171       7.63730409      -0.00246047      -0.00106130       0.00734069
Ti       0.29572188       1.69625364       8.32759233      -0.00298619      -0.00969349      -0.01284963
Ti       2.83788371       6.56527194       8.35184125      -0.00581863      -0.01065793      -0.00028835
Ti       0.95448655       8.57239729       8.97518286       0.01517931       0.00109859      -0.00451860
Ti       3.52305976       3.75578994       8.93114957       0.01007864      -0.00145944       0.00224574
Ti       2.58654680       0.91682293       9.83752099       0.00670475       0.00004699      -0.00242625
Ti       0.01981377       5.82586260       9.87188873       0.00512153       0.00086332       0.00233949
Ti       3.82974191       8.08052664      10.58882497      -0.00178825       0.00165830       0.00424661
Ti       1.34178815       3.21099767      10.51430403       0.00688656       0.01176092       0.00267999
Ti       0.04751203       0.73321098      10.92451667      -0.00303601       0.00056332      -0.00185379
Ti       2.54435010       5.68455384      11.01139619       0.00753020      -0.00060802      -0.00348113
Zr       3.95573496       3.33160241      11.77838610      -0.00169478       0.01231071      -0.00661601
Ti       1.31956856       8.26309998      11.72397914       0.00737334      -0.00588113       0.00456032
Ti       2.13496758       1.23850782      12.60635947       0.01265053       0.00814781       0.00209601
Ti       4.77178144       6.24403071      12.63174877       0.00445980       0.01245041      -0.00048790
Ti       1.54441779       4.18314894      13.28251805       0.00767651       0.00242498      -0.00814358
Ti       4.13369589       9.06159958      13.23729345       0.00212538       0.00354993       0.00308747
Ti       4.96198529       1.91822966      14.08116679      -0.01508571       0.00929983      -0.00297550
Ti       2.40227322       6.85432233      13.95844431      -0.00163581       0.01495898      -0.00210148
Ti       1.44271270       9.38875723      14.74302504       0.00493698      -0.00315639      -0.00718603
Ti       3.99553677       4.55432848      14.72076338       0.00344146       0.01159960      -0.00348096
Ti       4.88160492       7.17667180      15.31894291      -0.00069685       0.00489470      -0.00241161
Ti       2.38097738       2.31222977      15.29493072       0.00845558       0.00226859       0.00717141
Ti       1.49497983       4.96941182      16.01296597      -0.00037336       0.00335795       0.00237865
Ti       4.01473588       0.07565442      16.04310262      -0.00727640       0.00399517       0.00095647
Ti       2.32843682       7.62246844      16.79191850       0.00628994       0.00798831      -0.00147027
Ti       4.88098498       2.76326179      16.79170709      -0.00124263       0.00681037       0.00134124
Ti       4.05151304       5.44120587      17.47146486       0.00354027       0.00167849      -0.00267179
Ti       1.49865066       0.58240989      17.45736174       0.00896281       0.00798223      -0.00200862
Ti       4.93428620       8.09855630      18.11353717      -0.01448595       0.00387937       0.00048951
Ti       2.39060342       3.23165536      18.10750484      -0.00863031       0.00022077      -0.00103038
Ti       1.44490617       5.81327011      18.83542127       0.00141736       0.00272191       0.00206927
Ti       3.99039228       0.93965569      18.84328345       0.00112054       0.00381192       0.00093908
Ti       2.28516074       8.49391666      19.53366934      -0.00132241       0.00878758      -0.00033041
Ti       4.83411459       3.62405671      19.53856015      -0.00125575       0.00651500      -0.00285985
Ti       1.54391874       1.53012633      20.16395211      -0.00237211       0.00520329      -0.00014962
Ti       4.09125592       6.40289589      20.16984311      -0.00412307       0.00399086      -0.00493330
Ti       5.03170580       9.18138588      21.01300865      -0.00232508       0.00926915       0.00588473
Ti       2.48807470       4.31378984      21.00534082       0.00123173       0.00322455       0.00540164
Ti       3.77923941       2.04067462      21.72582275      -0.00284554       0.00109090      -0.00256340
Ti       1.23662644       6.91048684      21.72554398      -0.00424492      -0.00016057       0.00470231
