64
Lattice="5.088765 0.0 0.0 0.0 9.739025 0.0 0.0 0.0 22.303587" Properties=species:S:1:pos:R:3:forces:R:3 job_name=T2-Zr-Zr-36-d-1.39 GB_type=T2 element=Zr system=Zr-36-d-1.39 distance=1.39 energy=-495.89050896 stress_kbar_3x3="_JSON [[6.26785111, -3.78011026, -0.4646405], [-3.78011024, -9.08879636, -2.12105875], [-0.46464051, -2.12105871, -8.44262403]]" pbc="T T T"
Ti       2.55097798       9.28673685       0.01274437      -0.00212124       0.00425267      -0.00111775
Ti       0.00718901       4.41550039       0.01219874      -0.00121654       0.00799279      -0.00354127
Ti       1.27286144       1.90575542       0.61580807      -0.00274741       0.00489181      -0.00030824
Ti       3.81949884       6.77634884       0.61441857       0.00156614       0.00368114      -0.00075653
Ti       2.71414144       4.09871065       1.38279636      -0.00071271       0.01035806       0.00303368
Ti       0.17026833       8.96817414       1.38432400      -0.00000856       0.01031871       0.00075207
Ti       1.04484163       6.23943685       2.12542641      -0.00277907       0.00544440      -0.00140044
Ti       3.59008926       1.37073060       2.12183424       0.00076430       0.00601220      -0.00130179
Ti       0.23175192       3.52175888       2.75711767      -0.00497344       0.00670655       0.00316934
Ti       2.77632434       8.38763574       2.75713263      -0.00276228       0.00976806       0.00568387
Ti       1.12045735       0.89091884       3.48564068      -0.00408546       0.00314991       0.00476150
Ti       3.66297126       5.75953188       3.48743430       0.00013837       0.00718565       0.00322770
Ti       2.74793889       3.14301446       4.17517910       0.00067252       0.00631615       0.00980260
Ti       0.20340813       8.01067356       4.18014055      -0.00238788       0.00776464       0.00595165
Ti       3.61205598       0.47267601       4.83796549      -0.00126680       0.00499677       0.00492481
Ti       1.06384807       5.34420668       4.84483732       0.00476462       0.00880566       0.00767825
Ti       2.75986041       7.54735317       5.53738398      -0.00117359       0.00236680       0.00090061
Ti       0.21640951       2.68259364       5.53262100       0.00118279       0.00193515       0.00315142
Ti       3.61869797       4.89305662       6.29569627       0.00443191       0.00071492      -0.00244662
Ti       1.07405591       0.02983057       6.28964648       0.00633117       0.00011381      -0.00267530
Ti       0.21400632       7.09697569       6.95897215       0.00299153       0.00033128      -0.01047004
Ti       2.76538936       2.23461795       6.94915655      -0.00350997      -0.00044340      -0.00981013
Ti       1.11489762       4.44889594       7.60699083       0.00879779       0.00493407      -0.00639158
Ti       3.66118837       9.32073331       7.60231294       0.00481854      -0.00116395      -0.01125608
Ti       0.16824313       1.88906876       8.35031759      -0.00393808       0.00021319      -0.00642552
Ti       2.71162342       6.73925112       8.35078197      -0.00188090       0.00085540      -0.00319583
Ti       0.99382761       8.92384008       9.01663558       0.00167660       0.00454202      -0.00236190
Ti       3.54013376       4.05213235       9.04429567       0.00374062       0.00331174      -0.00487819
Ti       2.78390770       1.29830527       9.62451302       0.00325812       0.00116599       0.00297711
Ti       0.25953746       6.13548016       9.67201747       0.00079326      -0.00214762      -0.00254966
Ti       3.75939560       8.25105607      10.53551983      -0.00155144       0.00749684       0.00163808
Ti       1.23844549       3.42115696      10.57398960       0.00371223      -0.00192980       0.00179506
Ti       5.00723084       0.81359966      11.18809078       0.00220736      -0.00884843       0.00243260
Ti       2.52746605       5.68809649      11.26440838       0.00282715      -0.00400335      -0.01061198
Ti       3.79938747       3.28853003      11.71156915       0.00039774      -0.00308916       0.00123590
Ti       1.20643623       8.07098702      11.62813515      -0.00304095      -0.00433110      -0.00149547
Zr       2.38636297       0.94599807      12.48391169       0.00313562      -0.01361520      -0.00469826
Ti       5.02600562       5.86588218      12.43762340      -0.00067608      -0.00019661       0.00041071
Ti       1.60941406       3.88682848      13.32941450       0.00305772      -0.00476296      -0.00352075
Ti       4.23049991       8.61404718      13.29915621       0.01202644       0.00671725      -0.00320209
Ti       4.80430488       1.85137896      13.97282478       0.00332822      -0.00895370       0.00057233
Ti       2.21622451       6.71844705      13.93156688       0.00679913       0.00292077      -0.00051435
Ti       1.40018619       9.32226647      14.78419243       0.00102774       0.00060769       0.01363422
Ti       3.96271383       4.52205849      14.67612979      -0.00357404      -0.00729522       0.00491281
Ti       4.90923437       7.06677360      15.44320940      -0.00100011      -0.00937105       0.00025202
Ti       2.36229381       2.22968540      15.41827663      -0.00619085      -0.00668674      -0.00241176
Ti       1.46961302       4.85837909      16.00894488      -0.00079395      -0.00556859      -0.00057417
Ti       3.97398506       9.73101804      15.98315444       0.00237067      -0.00797759       0.01350872
Ti       2.35962582       7.48967569      16.75579005      -0.00351600      -0.00877803       0.00669407
Ti       4.88053183       2.63830257      16.72431140      -0.00107621      -0.00310828       0.00716715
Ti       4.03945218       5.28924871      17.48609213       0.00286022      -0.00258864      -0.00289669
Ti       1.48827415       0.42852507      17.48284349      -0.00622811      -0.00474527       0.00423964
Ti       4.86079274       8.00726416      18.13498530      -0.00120579      -0.00463789       0.00082960
Ti       2.30929496       3.12628266      18.14809190      -0.00005271      -0.00471055      -0.00158374
Ti       1.42972756       5.76691260      18.82256093      -0.00490471      -0.00243707      -0.00116945
Ti       3.97216595       0.89857721      18.81401780      -0.00464151      -0.00796829       0.00426423
Ti       2.32648754       8.38570866      19.56727661       0.00450812      -0.00560348       0.00063274
Ti       4.87552962       3.51755208      19.56147729      -0.00194077      -0.00396485      -0.00681067
Ti       1.50343133       1.36091966      20.19286125      -0.00157804       0.00074674       0.00242966
Ti       4.05304513       6.23435607      20.18951924      -0.00568696      -0.00060006      -0.00125447
Ti       4.91921346       8.96862549      20.91313612      -0.00232150      -0.00075679      -0.00240867
Ti       2.37984200       4.10200611      20.91692909      -0.00884393      -0.00538406      -0.00170748
Ti       3.81541470       1.90852423      21.69619213       0.00253597      -0.00135167      -0.00736609
Ti       1.27190596       6.77804508      21.70151725      -0.00233504       0.00040056       0.00044883
