64
Lattice="5.088765 0.0 0.0 0.0 9.739025 0.0 0.0 0.0 22.303587" Properties=species:S:1:pos:R:3:forces:R:3 job_name=T2-Zn-Zn-44-d-4.19 GB_type=T2 element=Zn system=Zn-44-d-4.19 distance=4.19 energy=-488.79423271 stress_kbar_3x3="_JSON [[-2.81168089, -0.63607823, 0.47655872], [-0.63607825, -18.99120814, -0.81114529], [0.47655872, -0.81114532, -19.10842082]]" pbc="T T T"
Ti       2.56066302       9.25591878      22.27936513       0.00026830       0.00536904       0.00363052
Ti       0.00859080       4.39017696      22.28614091      -0.00288241       0.00019157      -0.00504861
Ti       1.28531769       1.88425004       0.61095819       0.00102167      -0.00257284       0.00129068
Ti       3.82741371       6.75642640       0.60232813       0.00259258       0.00136587       0.00325002
Ti       2.72474378       4.08024501       1.39149998      -0.00092478      -0.00058875      -0.00172050
Ti       0.17797438       8.95159623       1.37546283      -0.00323298       0.00098716       0.00296501
Ti       1.03634577       6.21978392       2.11294714       0.00117382       0.00258993       0.00400417
Ti       3.58654996       1.34585549       2.11899833      -0.00110933      -0.00144199      -0.00355638
Ti       0.22556204       3.49980069       2.75769223       0.00113884       0.00193776       0.00140799
Ti       2.77126149       8.36698594       2.75470917       0.00361553      -0.00156227      -0.00158029
Ti       1.11031697       0.86961837       3.50110682      -0.00104349      -0.00171396      -0.00218773
Ti       3.65233482       5.74339082       3.50446241       0.00091121       0.00398624       0.00150573
Ti       2.75998360       3.10806688       4.19020535       0.00319440       0.00157696       0.00108113
Ti       0.21521442       7.97627159       4.18904589       0.00194117      -0.00072698      -0.00122102
Ti       3.61238936       0.43437978       4.85317967       0.00198741      -0.00054287       0.00224672
Ti       1.06943754       5.30758974       4.85400692       0.00020133       0.00182895       0.00238678
Ti       2.75258234       7.52183459       5.58460602       0.00194885       0.00027261      -0.00088877
Ti       0.20755676       2.65615016       5.57816374       0.00255414       0.00135299       0.00410947
Ti       3.61615199       4.87417001       6.30372702      -0.00026573       0.00066079      -0.00085319
Ti       1.06616832       0.00333693       6.29711608       0.00202735       0.00021110       0.00500398
Ti       0.21778426       7.06798656       6.97615948      -0.00135979       0.00288855      -0.00107106
Ti       2.75865181       2.20137110       6.96553564      -0.00256142       0.00098889       0.00381410
Ti       1.11634389       4.44167765       7.65392780       0.00233673      -0.00210207      -0.00480144
Ti       3.65271548       9.30562483       7.65007144       0.00425358       0.00132361       0.00078758
Ti       0.22568042       1.81612457       8.38694862       0.00110067      -0.00273056      -0.00040718
Ti       2.77797535       6.68083557       8.41691879      -0.00184897       0.00222143      -0.00511503
Ti       1.03129472       8.84164183       9.03093255      -0.00270262       0.00642379      -0.00346314
Ti       3.60041404       3.96459331       9.03621706       0.00059626      -0.00124326      -0.00596064
Ti       2.71519848       1.23534119       9.75951376      -0.00171485      -0.00108071      -0.00600260
Ti       0.19642931       6.11049835       9.79285650      -0.00203050       0.00205254      -0.00258974
Ti       3.82975783       8.29732128      10.55591020       0.00080861       0.00074167      -0.00332571
Ti       1.29402403       3.43659460      10.53272618      -0.00300021      -0.00195610       0.00113949
Ti       5.08265072       0.93075314      11.16710867       0.00081203      -0.00222520      -0.00330075
Ti       2.58701759       5.79230005      11.20516313       0.00294748       0.00044152       0.00070493
Ti       3.84285607       3.43037418      11.78496102      -0.00002024      -0.00400935       0.00485402
Ti       1.27548685       8.30432303      11.74176431      -0.00045128      -0.00148108      -0.00175611
Ti       2.38100695       1.21195459      12.54638174      -0.00142104      -0.00116318       0.00732717
Ti       4.97118903       6.11818085      12.58878583       0.00081809      -0.00672425       0.00465774
Ti       1.51319902       3.93261806      13.27061490      -0.00228970      -0.00220030       0.00597699
Ti       4.05923222       8.81383268      13.28295803       0.00032629       0.00049541       0.00329982
Ti       4.84735640       1.78945846      13.94183342       0.00015215       0.00156993       0.00270804
Ti       2.26541595       6.69173503      13.95035761      -0.00142008      -0.00286208       0.00263861
Ti       1.37731451       9.30088042      14.67408224      -0.00212613       0.00071926       0.00072974
Ti       3.92906778       4.46114036      14.67071652       0.00034178      -0.00094310       0.00130758
Zn       4.81651903       7.06615928      15.34274791      -0.00381862      -0.00384747      -0.00203271
Ti       2.33698756       2.18907230      15.33680684       0.00194137       0.00149041      -0.00445581
Ti       1.39430497       4.84838310      15.98761668       0.00123653       0.00052655      -0.00238827
Ti       3.99172863       9.71125723      16.00051026      -0.00004423      -0.00039937       0.00028852
Ti       2.27047081       7.50211762      16.71046861       0.00049209      -0.00198542       0.00101314
Ti       4.85038241       2.67971116      16.70161452      -0.00218222       0.00012382      -0.00315846
Ti       4.00228427       5.30919205      17.43201813      -0.00033167       0.00045409       0.00115356
Ti       1.47194306       0.45934280      17.44765223      -0.00001533      -0.00105864      -0.00213429
Ti       4.90825960       7.96772048      18.07726927       0.00157523      -0.00069966      -0.00056361
Ti       2.33111024       3.11590768      18.10563949       0.00253468       0.00027599      -0.00147353
Ti       1.44087238       5.72218488      18.82466174      -0.00174913       0.00248325      -0.00094162
Ti       3.98895150       0.87165732      18.79226309      -0.00015440       0.00142040       0.00069779
Ti       2.33645232       8.36201249      19.48970461      -0.00055665      -0.00364586       0.00070460
Ti       4.86218570       3.48884695      19.51624121      -0.00195219      -0.00004365       0.00130033
Ti       1.52064451       1.34502326      20.18566612      -0.00026764       0.00090888       0.00337022
Ti       4.06051467       6.21801862      20.16766872       0.00037306      -0.00015551      -0.00383033
Ti       4.93563059       8.93571056      20.88645340      -0.00375965       0.00131559      -0.00216405
Ti       2.39185550       4.07797752      20.91304155       0.00196272      -0.00096556       0.00053799
Ti       3.83101836       1.88371117      21.68517222       0.00091836      -0.00081527      -0.00274583
Ti       1.28759969       6.75364321      21.67984979      -0.00286701       0.00229076      -0.00115576
