64
Lattice="5.088765 0.0 0.0 0.0 9.739025 0.0 0.0 0.0 22.303587" Properties=species:S:1:pos:R:3:forces:R:3 job_name=T2-Zr-Zr-35-d-0.63 GB_type=T2 element=Zr system=Zr-35-d-0.63 distance=0.63 energy=-495.86468892 stress_kbar_3x3="_JSON [[6.24214027, 3.09347147, 1.3405187], [3.09347145, -8.81591911, 5.00685479], [1.34051871, 5.00685479, -8.32489466]]" pbc="T T T"
Ti       2.54962562       9.28253977       0.01435692       0.00292762       0.00327539      -0.00486107
Ti       0.00248304       4.41328108       0.01102631       0.00196788       0.00297800       0.00142761
Ti       1.28270955       1.91707665       0.61378101       0.00014483       0.00046631       0.00725012
Ti       3.82622737       6.78514179       0.61352243       0.00037638      -0.00150005       0.00221662
Ti       2.69643045       4.11925454       1.38698399       0.00116389      -0.00477670       0.01245514
Ti       0.15119542       8.98769984       1.38211549       0.00232461      -0.00262806       0.00237532
Ti       1.02385636       6.22682812       2.12176800      -0.00031280      -0.00839301       0.00728773
Ti       3.57092535       1.36008766       2.11914124      -0.00047369       0.00166746       0.00112752
Ti       0.21623922       3.50062585       2.75185610      -0.00298178       0.00220699       0.00270077
Ti       2.76034687       8.36690342       2.74978169      -0.00318750      -0.00211377       0.00051178
Ti       1.10181000       0.86494892       3.49487375       0.00501457       0.00532927      -0.00268048
Ti       3.64696228       5.73283596       3.50247681       0.00501675      -0.00635060       0.00617184
Ti       2.75805605       3.09713562       4.16318052       0.00128646       0.00630733       0.00075252
Ti       0.21184363       7.96490434       4.16117118       0.00230053      -0.00848624       0.00160393
Ti       3.60174590       0.40115001       4.82437432      -0.00477054       0.00323762       0.00309806
Ti       1.06090431       5.26753281       4.83347603      -0.00380985      -0.00447219       0.00253661
Ti       2.73505119       7.49011299       5.57656746       0.00215559      -0.00930770       0.00363421
Ti       0.18731247       2.61659603       5.57666641       0.00194150       0.00880260       0.00436143
Ti       3.60986065       4.81773067       6.28343551      -0.00056124      -0.00060136      -0.00430597
Ti       1.05709589       9.69357062       6.27320116      -0.00349927      -0.00006315       0.00535854
Ti       0.16780191       7.02824106       6.89773691      -0.00558730      -0.00995360      -0.00423536
Ti       2.71043344       2.15950244       6.89236994      -0.00519936       0.00097010      -0.00447442
Ti       1.10625085       4.43568487       7.63336174       0.00300615      -0.00033889      -0.01122895
Ti       3.64855153       9.32156345       7.62838566       0.00587513      -0.00236049      -0.00060259
Ti       0.28691734       1.74343159       8.35326345       0.00241171       0.00004108      -0.00888310
Ti       2.83805036       6.61018320       8.33198770      -0.00052189      -0.00016624      -0.00569399
Ti       0.98989385       8.68300227       8.92952947      -0.00111688      -0.00442851       0.00727578
Ti       3.51805079       3.76667285       8.97453456      -0.00344172      -0.00028183      -0.00843551
Ti       2.58004424       1.00383271       9.85072048      -0.00348303      -0.00784224      -0.00200608
Ti       0.06434175       5.83687652       9.83339246      -0.00074936       0.00535228      -0.00148721
Ti       3.89614642       8.13492937      10.49318229      -0.00260500      -0.00486173       0.00663375
Ti       1.30291498       3.25692355      10.57318262       0.00256955      -0.00351600      -0.00442616
Ti       0.00565735       0.86531629      11.02557950       0.00393390      -0.01543388       0.01015807
Ti       2.60728956       5.65094710      10.94923234       0.00103360       0.00525312       0.00405396
Ti       3.88118289       3.43311642      11.73321162      -0.00134459       0.00077098       0.00872191
Zr       1.41821773       8.24730323      11.77846141      -0.00671935       0.00056564       0.00243766
Ti       2.26597278       1.38735596      12.62804950      -0.00612634      -0.00804541       0.00525411
Ti       4.71617143       6.14245005      12.61650264       0.00028816       0.00850290       0.00283173
Ti       1.56789043       4.16562371      13.23541279      -0.00232177       0.00248474       0.00749934
Ti       4.06895243       9.01265162      13.28053536       0.00401805      -0.00103080      -0.00470685
Ti       4.94407703       1.94177519      13.95309022       0.00527170      -0.00143768      -0.00057370
Ti       2.40841359       6.75102332      14.07781927       0.00532656       0.00312276      -0.00640329
Ti       1.45178993       9.38856006      14.71021374      -0.00248552      -0.00045687      -0.01353038
Ti       3.99003826       4.47915339      14.71872534      -0.00082507       0.00074159      -0.00159628
Ti       4.92263616       7.13808279      15.31562635      -0.00265024      -0.00102254      -0.01059083
Ti       2.33861041       2.26821376      15.32581360      -0.00241256       0.00276518      -0.00481364
Ti       1.46367823       4.89031304      16.04817323       0.00279968       0.00065244       0.00123055
Ti       4.02885030       0.04112060      16.02195323       0.00352629       0.00247752      -0.00579485
Ti       2.32073449       7.57647965      16.78359997      -0.00125866      -0.00306098       0.00434794
Ti       4.85921877       2.69626628      16.77528290      -0.00275704       0.00513254       0.00073600
Ti       4.03355195       5.38135061      17.45272913       0.00282253       0.00164997       0.00601306
Ti       1.49404643       0.50072580      17.46662324       0.00207762       0.00344569       0.00285201
Ti       4.90142633       8.03177285      18.14492727       0.00054726      -0.00311913       0.00739407
Ti       2.35534042       3.16202183      18.14603701       0.00111698       0.00671959       0.00216130
Ti       1.43843396       5.77869350      18.83771023      -0.00371189       0.00024168       0.00257097
Ti       3.98127489       0.91254657      18.83091670      -0.00265785       0.00144097       0.00205209
Ti       2.33395845       8.39888022      19.55033485       0.00353646      -0.00141692      -0.00146400
Ti       4.87563341       3.53277827      19.54165218       0.00372638       0.00737046      -0.00552810
Ti       1.49569340       1.36019521      20.19427110       0.00073725       0.00417109      -0.00215377
Ti       4.04042897       6.22838438      20.18979623       0.00191730       0.00459985      -0.01054098
Ti       4.90921727       8.94723133      20.91672951      -0.00163425       0.00461487      -0.00421854
Ti       2.36308924       4.07379140      20.92218681      -0.00163424       0.00802783      -0.00788805
Ti       3.83019719       1.89512091      21.69280922      -0.00009815      -0.00086064      -0.00036884
Ti       1.28381952       6.76461381      21.69464976      -0.00222413       0.00294133      -0.00560103
