64
Lattice="5.088765 0.0 0.0 0.0 9.739025 0.0 0.0 0.0 22.303587" Properties=species:S:1:pos:R:3 job_name=T2-Zn-Zn-35-d-0.63 GB_type=T2 element=Zn system=Zn-35-d-0.63 distance=0.63 energy=-488.8873655 pbc="T T T"
Ti       2.52407697       9.27261654      22.28188866
Ti       5.07854920       4.40213002      22.28360496
Ti       1.25927048       1.87832604       0.61232930
Ti       3.80347498       6.75237646       0.61779631
Ti       2.73566092       4.05519649       1.39326216
Ti       0.19420817       8.93074042       1.41014908
Ti       1.04617840       6.20868023       2.11295450
Ti       3.58641046       1.33130429       2.11355806
Ti       0.22959805       3.48857898       2.76699928
Ti       2.77463106       8.36141298       2.77717842
Ti       1.12275818       0.87170800       3.52175304
Ti       3.66538833       5.74630070       3.50058739
Ti       2.77623456       3.10344436       4.17175487
Ti       0.23260457       7.97536582       4.19915891
Ti       3.65049956       0.44252584       4.86657706
Ti       1.10213369       5.32283117       4.86186766
Ti       2.78676647       7.54873996       5.58223187
Ti       0.24475592       2.68162554       5.58443195
Ti       3.62607576       4.88447339       6.26416096
Ti       1.08282881       0.00276534       6.31566232
Ti       0.24720619       7.08881916       7.00410651
Ti       2.79301230       2.21548752       6.94265550
Ti       1.12925562       4.45070740       7.69899568
Ti       3.66670789       9.29806440       7.68756008
Ti       0.23989991       1.80759487       8.37858998
Ti       2.79765896       6.67992244       8.37037491
Ti       1.11960634       8.87295723       9.09625163
Ti       3.65738868       4.02779006       9.01084082
Ti       2.81290215       1.38393484       9.69619352
Ti       0.18906104       6.20685239       9.83625374
Ti       3.64100896       8.42338483      10.50628482
Ti       1.23020608       3.49912154      10.50613613
Ti       5.06361363       0.92485204      11.27554813
Ti       2.63706700       5.83417529      11.11713947
Ti       3.78090987       3.38361851      11.74420798
Zn       1.25141277       8.23249516      11.81288526
Ti       2.47910776       1.05297799      12.43066096
Ti       4.90555507       5.97190569      12.65461304
Ti       1.54718136       3.93572756      13.24149756
Ti       4.09798465       8.74897474      13.26865186
Ti       4.81134363       1.78387502      13.91579243
Ti       2.31086069       6.64996012      13.86976805
Ti       1.39628162       9.30193604      14.58648052
Ti       3.93531930       4.39918646      14.72361236
Ti       4.82405101       7.03814272      15.35988497
Ti       2.29473327       2.15553656      15.33242471
Ti       1.43346849       4.85300003      15.96831892
Ti       3.99983126       9.71707423      15.97312540
Ti       2.29868063       7.50906886      16.70666515
Ti       4.85756315       2.61859556      16.74716718
Ti       3.99546307       5.29178292      17.46278087
Ti       1.45394774       0.41715004      17.42944214
Ti       4.84411796       7.97255128      18.10805833
Ti       2.30819748       3.10163907      18.09117523
Ti       1.40943384       5.72831981      18.78500845
Ti       3.95112952       0.85043075      18.79270882
Ti       2.28375503       8.37044785      19.52791060
Ti       4.83162386       3.48995677      19.54547319
Ti       1.49722270       1.36566414      20.16572611
Ti       4.04327205       6.23566590      20.17810696
Ti       4.91913837       8.98653855      20.92918874
Ti       2.37862663       4.11035421      20.91478706
Ti       3.79441413       1.90388484      21.69305648
Ti       1.25177611       6.77939178      21.68721690
