64
Lattice="5.088765 0.0 0.0 0.0 9.739025 0.0 0.0 0.0 22.303587" Properties=species:S:1:pos:R:3:forces:R:3 job_name=T2-Zn-Zn-45-d-4.19 GB_type=T2 element=Zn system=Zn-45-d-4.19 distance=4.19 energy=-488.79502928 stress_kbar_3x3="_JSON [[-1.80827893, -0.68135652, 0.50737949], [-0.68135654, -18.06559591, -0.88670444], [0.50737949, -0.88670444, -18.22303192]]" pbc="T T T"
Ti       2.55264379       9.26285482      22.28708277       0.00496214      -0.00123555      -0.00604836
Ti       0.01459915       4.38877948      22.28007373      -0.00538743       0.00252743       0.00620755
Ti       1.28413062       1.88817741       0.60329977      -0.00307872       0.00268614      -0.00001455
Ti       3.83020800       6.75494827       0.61268195      -0.00227940      -0.00036542      -0.00590537
Ti       2.72141496       4.08351961       1.37563211       0.00142594       0.00577905       0.00405734
Ti       0.17931870       8.95203439       1.39034134      -0.00041979       0.00472999       0.00130674
Ti       1.04157032       6.21688148       2.12112714       0.00334148       0.00259439       0.00394945
Ti       3.58151907       1.35059374       2.11443090       0.00247695       0.00332021       0.00659488
Ti       0.22928578       3.49781404       2.75488811       0.00228658       0.00234509       0.00301897
Ti       2.77310855       8.36947985       2.75835682       0.00133144       0.00406332       0.00448437
Ti       1.11069568       0.87266708       3.50514237       0.00359371       0.00376107      -0.00153612
Ti       3.65618899       5.73955459       3.50181908       0.00127301      -0.00015692       0.00270761
Ti       2.76069168       3.10851285       4.18861759       0.00047183       0.00057775      -0.00104667
Ti       0.21707029       7.97829090       4.18949213       0.00307690      -0.00117017      -0.00214192
Ti       3.61590577       0.43838410       4.85437503       0.00488806       0.00428200      -0.00236109
Ti       1.07018352       5.30599661       4.85339941       0.00631133      -0.00002091      -0.00113428
Ti       2.75485629       7.52659620       5.57630666       0.00254773       0.00069831      -0.00287999
Ti       0.21119442       2.65357996       5.58238984       0.00292135       0.00358268      -0.00185294
Ti       3.61282377       4.87363356       6.29646771       0.00259528      -0.00070354       0.00021318
Ti       1.07246052       0.00432803       6.30304598       0.00163077       0.00528822       0.00071465
Ti       0.21458123       7.07200688       6.96582986       0.00310920       0.00145657      -0.00113169
Ti       2.76267223       2.19887172       6.97544362      -0.00077195       0.00443711       0.00028641
Ti       1.11032212       4.43678986       7.64974648       0.00453277      -0.00149321       0.00087804
Ti       3.66156697       9.31163049       7.65401553      -0.00178642       0.00355183      -0.00192942
Ti       0.23231486       1.81193624       8.41413091      -0.00390804       0.00493906      -0.00150587
Ti       2.76982859       6.68741351       8.38758065      -0.00511757       0.00104673       0.00161816
Ti       1.05403313       8.83727306       9.03763539       0.00294892       0.00264787      -0.00035395
Ti       3.57597377       3.97431073       9.03235323       0.00206888       0.00124599      -0.00169349
Ti       2.73958065       1.24071970       9.78859178       0.00463482       0.00097353      -0.00497694
Ti       0.17275390       6.10968228       9.75958938       0.00512345       0.00111687      -0.00364944
Ti       3.83580426       8.30725452      10.53391588      -0.01056075       0.00274351       0.00548423
Ti       1.28433052       3.42645936      10.55572613      -0.00756963      -0.00176236      -0.00203279
Ti       0.04017771       0.92051630      11.20361305      -0.00583317       0.00246643      -0.00196077
Ti       2.53450835       5.79688592      11.16929124      -0.00589621       0.00026015       0.00462123
Ti       3.81823389       3.43039830      11.74016230      -0.00139650      -0.00832720      -0.00361401
Ti       1.29475959       8.29506611      11.78239317       0.00182507      -0.00969847      -0.00554201
Ti       2.42784947       1.24102366      12.58536216       0.00546798      -0.00629821      -0.00223991
Ti       4.92545144       6.07512366      12.54584251       0.00237883      -0.01284028      -0.00268069
Ti       1.51702661       3.94147974      13.28356817       0.00645994      -0.00706172       0.00369422
Ti       4.06074186       8.79945831      13.27131035      -0.00160331      -0.00594586       0.00232579
Ti       4.80867333       1.82218739      13.94893459      -0.00442614      -0.00767181       0.00289658
Ti       2.29956929       6.65984564      13.94066447       0.00161779      -0.00771536       0.00213501
Ti       1.38610281       9.33069217      14.67274765      -0.00259824       0.00383730       0.00806789
Ti       3.91994675       4.43160944      14.67660121      -0.00980215       0.00331739       0.00722467
Ti       4.88217722       7.05855242      15.33754204      -0.00391245       0.00131275       0.00178184
Zn       2.27229458       2.19526323      15.34172253      -0.00373542      -0.00082278       0.00152161
Ti       1.44551686       4.84126071      15.99917402       0.00044501      -0.00868877      -0.00001655
Ti       3.93861511       9.71936531      15.98726594      -0.00087100      -0.00208213      -0.00166303
Ti       2.30675191       7.54646118      16.70125820      -0.00018307      -0.00239648      -0.00394443
Ti       4.81572214       2.63110638      16.71169129      -0.00128929       0.00124250       0.00163428
Ti       4.01768706       5.32942481      17.44854011       0.00008618      -0.00032688      -0.00347044
Ti       1.45900606       0.43768860      17.43238898       0.00346207       0.00506596      -0.00407403
Ti       4.87496211       7.98542600      18.10461031      -0.00329592      -0.00415239       0.00164720
Ti       2.36572489       3.09899127      18.07739616       0.00029618      -0.00266731      -0.00627125
Ti       1.44206896       5.74093386      18.79202567       0.00000543       0.00103819       0.00564969
Ti       3.98576673       0.85283193      18.82610114       0.00346872      -0.00007625       0.00164429
Ti       2.31582120       8.35846421      19.51568896       0.00523348      -0.00402614       0.00186204
Ti       4.87774155       3.49238014      19.49227138       0.00141055      -0.00323691      -0.00122158
Ti       1.51606853       1.34968653      20.16788132      -0.00816598      -0.00220789       0.00057567
Ti       4.06384401       6.21377202      20.18609638      -0.00723799       0.00151935      -0.00252741
Ti       4.93388947       8.94706386      20.91257922      -0.00713035       0.00528113      -0.00015021
Ti       2.38820026       4.06694165      20.88773745      -0.00293635       0.00581119      -0.00704985
Ti       3.83065129       1.88679529      21.68073382       0.00696979      -0.00191179       0.00186118
Ti       1.28638919       6.75298843      21.68450879       0.00451366       0.00351568      -0.00204374
