64
Lattice="5.088765 0.0 0.0 0.0 9.739025 0.0 0.0 0.0 22.303587" Properties=species:S:1:pos:R:3:forces:R:3 job_name=T2-Zn-Zn-51-d-6.29 GB_type=T2 element=Zn system=Zn-51-d-6.29 distance=6.29 energy=-488.81622623 stress_kbar_3x3="_JSON [[-2.98426512, -0.72796704, 0.24771456], [-0.72796702, -19.09409436, 0.72995263], [0.24771458, 0.72995263, -19.17113757]]" pbc="T T T"
Ti       2.52810621       9.25415671       0.01791167      -0.00804988       0.01150345      -0.00167907
Ti       0.01210462       4.38709393       0.03837181      -0.00725557      -0.00673551      -0.00339379
Ti       1.26188988       1.88811220       0.57764379       0.00536084       0.00401979       0.00580478
Ti       3.82446749       6.77081178       0.61533156       0.00138320      -0.00160756       0.00716398
Ti       2.66173964       4.11213368       1.34313460       0.00027969      -0.00348872       0.01057407
Ti       0.14250399       8.98305112       1.38847039       0.00465676       0.00864133       0.01003161
Ti       1.03636049       6.23738188       2.12982976       0.00318084       0.00031240       0.00889313
Ti       3.55911571       1.37101216       2.09531408       0.00190379       0.00556764      -0.00301477
Ti       0.22974722       3.50067470       2.75396752       0.00087598       0.00096977      -0.00085012
Ti       2.77523533       8.37743595       2.77171992       0.00176840      -0.00022208       0.00333909
Ti       1.10369650       0.86739876       3.49551223      -0.00262016       0.00257502       0.00126591
Ti       3.65321167       5.72865708       3.48985089       0.00038095      -0.00043712      -0.00553287
Ti       2.75344573       3.10805252       4.18270021      -0.00471071       0.00209221      -0.00267875
Ti       0.20841274       7.97497060       4.20108632      -0.00290334       0.00141462      -0.00664030
Ti       3.61136916       0.44196944       4.84514349      -0.00014570       0.00285514       0.00371165
Ti       1.06766298       5.30603253       4.85124220      -0.00208154      -0.00428494      -0.00828549
Ti       2.75146041       7.51992371       5.57417139      -0.00082087       0.00385239      -0.00439138
Ti       0.20546281       2.65265134       5.57260322       0.00674467      -0.00455166       0.00310477
Ti       3.61473043       4.87149877       6.29940680      -0.00320475      -0.00613992      -0.00490954
Ti       1.07047888       0.00251578       6.30501877      -0.00055360       0.00831551      -0.00020816
Ti       0.21254511       7.06890408       6.96765550       0.00026095       0.00408584       0.00660209
Ti       2.75681798       2.20075588       6.96065066      -0.00450708      -0.00420931      -0.00521553
Ti       1.10708078       4.43912676       7.64811448      -0.00022844      -0.00424879       0.00984872
Ti       3.65142705       9.31128856       7.64980901       0.00063917       0.00460112      -0.00253530
Ti       0.22843833       1.81388350       8.39183627      -0.00188275      -0.00152385      -0.00730447
Ti       2.76803155       6.68056052       8.39542105       0.00091412      -0.00260760       0.01389533
Ti       1.01818367       8.81948679       9.04069293      -0.00526086      -0.00789807       0.00215027
Ti       3.56757845       3.95149342       9.03358817       0.00084298       0.00270361       0.00918763
Ti       2.69698987       1.20166460       9.76856402       0.00083675       0.00160583      -0.00984873
Ti       0.15202998       6.07903323       9.77175152       0.00359206      -0.00237413       0.01017890
Ti       3.80747614       8.27405874      10.56646538       0.00492764      -0.01653226      -0.00652288
Ti       1.27284947       3.40947160      10.55610155       0.00011057       0.01815430      -0.00484808
Ti       5.08082384       0.90895354      11.14607193      -0.00137384      -0.00037963      -0.01274719
Ti       2.52978412       5.77879188      11.15749037      -0.00846078       0.00087471       0.00326325
Ti       3.80940303       3.42450370      11.77471368      -0.00011898       0.01815977       0.00234060
Ti       1.25707922       8.30171823      11.79146127       0.00090892      -0.01747938      -0.00848806
Ti       2.33808476       1.24352685      12.55633030       0.00183901       0.00958490      -0.00153483
Ti       4.89643752       6.12132975      12.54152647       0.00191473      -0.00458250      -0.01268144
Ti       1.50109010       3.97422229      13.30044364       0.00355753       0.00739822      -0.00492396
Ti       4.02879431       8.86038429      13.31640131       0.00465770      -0.01071754      -0.00436486
Ti       4.85740131       1.83200170      13.91496603      -0.00107789       0.01243403       0.00058372
Ti       2.30997252       6.68807258      13.93467473       0.00095929      -0.01377907      -0.00996744
Ti       1.40935364       9.32226257      14.69023572      -0.00224023      -0.00552181      -0.00076857
Ti       3.98475445       4.44794397      14.65457463       0.00000711       0.00614642      -0.00292478
Ti       4.88758655       7.05612928      15.33775189      -0.00351338      -0.01069267       0.00542965
Ti       2.38273305       2.19955726      15.35542401       0.00090098       0.00939094       0.00055244
Ti       1.49679069       4.83840263      16.03723437      -0.00278580       0.00519392      -0.00032314
Ti       4.06908232       0.00139936      16.04852056      -0.00214080      -0.00624918       0.01147697
Ti       2.34654863       7.53536580      16.72457765       0.00048305      -0.00642413       0.00674868
Ti       4.94077665       2.65505400      16.70173143       0.00183141       0.00697167       0.00615630
Ti       4.02162896       5.32141091      17.43893857       0.00560351      -0.00046460      -0.00075549
Zn       1.52149057       0.44140291      17.42988998       0.00284773      -0.00747993      -0.00156708
Ti       4.93341467       7.98261229      18.14914754       0.00204516      -0.00408269      -0.00818327
Ti       2.35417901       3.09385633      18.11402277      -0.00103487       0.00001964       0.00003220
Ti       1.46714480       5.79256350      18.78243692      -0.00744893       0.00137301      -0.00510954
Ti       4.04800744       0.89044144      18.77442811      -0.00218018       0.00268580       0.00122541
Ti       2.38357892       8.37554743      19.50932010       0.00318832      -0.00118301      -0.00062823
Ti       4.88840632       3.52723185      19.52118656      -0.00264575       0.00554890       0.00220408
Ti       1.45024429       1.29893494      20.13542602       0.00391116      -0.00072182       0.00798226
Ti       4.03507783       6.18029142      20.19216830       0.00442043      -0.00745419      -0.00680004
Ti       4.87832670       8.89773846      20.91145563      -0.00276649      -0.00094210       0.00016391
Ti       2.32212565       4.01107644      20.86566902       0.00543659      -0.00012469       0.00891888
Ti       3.81124129       1.85389642      21.63326666       0.00075716      -0.00060403       0.00194364
Ti       1.29232384       6.72974842      21.66349255      -0.00191598      -0.00330739      -0.00514678
