64
Lattice="5.088765 0.0 0.0 0.0 9.739025 0.0 0.0 0.0 22.303587" Properties=species:S:1:pos:R:3:forces:R:3 job_name=T2-Zr-Zr-49-d-5.58 GB_type=T2 element=Zr system=Zr-49-d-5.58 distance=5.58 energy=-495.86178422 stress_kbar_3x3="_JSON [[7.10154397, 0.04807817, 0.00623011], [0.04807818, -7.78528737, -5.81940395], [0.00623012, -5.81940395, -7.62921668]]" pbc="T T T"
Ti       2.51044252       9.34960737      22.21950769      -0.00796880       0.00156196       0.00732771
Ti       5.03520277       4.47549181      22.25493164      -0.00409993      -0.00474310       0.00363098
Ti       1.21042490       1.90139886       0.59827634       0.00173749      -0.01111589      -0.00479895
Ti       3.75503484       6.78256329       0.61796819       0.00873145      -0.01009600      -0.00142449
Ti       2.75831698       4.03191135       1.45606131       0.00069627      -0.00532938      -0.00711774
Ti       0.23973715       8.90028028       1.45929772       0.00302408      -0.00214690      -0.00684582
Ti       1.00113363       6.14325287       2.12134245      -0.00196856      -0.00421452       0.00310197
Ti       3.54237152       1.28027780       2.10408099       0.00043707      -0.00380721      -0.00414176
Ti       0.15925580       3.45454546       2.78961781      -0.00100407      -0.00166978      -0.00059665
Ti       2.70851598       8.33291230       2.79399950      -0.00246652      -0.00142263       0.00046661
Ti       1.09567993       0.87428242       3.51804277      -0.00150560      -0.00295276      -0.00217069
Ti       3.64012595       5.74135426       3.51831686       0.00149410      -0.00079401       0.00046228
Ti       2.72939497       3.10682572       4.17864514       0.00207032       0.00052865      -0.00012043
Ti       0.18752696       7.97500412       4.17764469       0.00171446      -0.00159986       0.00488104
Ti       3.59422471       0.44899040       4.85118982       0.00129373      -0.00197302       0.00145761
Ti       1.04770500       5.31558939       4.85623413      -0.00085741       0.00255584       0.00129078
Ti       2.75381103       7.52122791       5.57627602       0.00096608       0.00038014       0.00058505
Ti       0.20606912       2.65169317       5.57617039      -0.00114494       0.00075288       0.00118789
Ti       3.59387751       4.85484408       6.30062075       0.00227010       0.00241856       0.00067775
Ti       1.04735742       9.72738339       6.29541007      -0.00034391      -0.00246917       0.00008501
Ti       0.18716670       7.06800726       6.97336112       0.00146464       0.00137805      -0.00295639
Ti       2.72892837       2.19690963       6.97235591       0.00254881      -0.00055063       0.00164734
Ti       1.09561065       4.43015344       7.63415642      -0.00189324       0.00433509       0.00307970
Ti       3.64002103       9.30204179       7.63402006       0.00152125       0.00215815       0.00118928
Ti       0.15989471       1.84970136       8.36276753      -0.00108430       0.00282039       0.00039626
Ti       2.70901911       6.71024951       8.35846960      -0.00286462       0.00229844      -0.00044538
Ti       1.00146101       8.89934860       9.02955073      -0.00194964       0.00489382      -0.00347243
Ti       3.54246075       4.02315471       9.04684205       0.00170390       0.00421350       0.00281175
Ti       2.75584003       1.27378973       9.69650720       0.00073731       0.00527173       0.00408822
Ti       0.23708382       6.14441403       9.69295599       0.00383041       0.00176835       0.00429531
Ti       3.75526816       8.26360477      10.53378299       0.00974491       0.01012526      -0.00069945
Ti       1.21066523       3.40597127      10.55322704       0.00135262       0.01081263       0.00250570
Ti       5.03499623       0.83353581      11.19766540      -0.00272540       0.00344192      -0.00426350
Ti       2.50978268       5.69815183      11.23350918      -0.00660229      -0.00184799      -0.00873992
Ti       3.75566352       3.26928867      11.71716296       0.00408728      -0.00159840      -0.00408736
Ti       1.22763858       8.14680443      11.69150150      -0.01198153      -0.00091461       0.01394976
Ti       2.45304247       0.98857788      12.44696350       0.00058415       0.00628706      -0.00776851
Ti       5.02171610       5.89895427      12.43176847       0.01044906       0.01279625      -0.00444431
Ti       1.54793151       3.85830521      13.29999692      -0.00753395       0.00896110      -0.01131544
Ti       4.13152390       8.67674601      13.27864509       0.00834759       0.00235860      -0.01538959
Ti       4.82863226       1.72091545      13.84439389       0.00070162       0.00452509      -0.00047799
Ti       2.28413883       6.64860191      13.89473338      -0.00574311       0.00580141      -0.00413181
Ti       1.44265440       9.29586984      14.66509900      -0.00651711      -0.00480307       0.00007040
Ti       3.99379452       4.46688608      14.57732746       0.00363346      -0.00178813       0.00882614
Ti       4.92074676       7.00986462      15.36604281       0.00328987      -0.00032231       0.00380107
Ti       2.37569055       2.16079942      15.28368797       0.00488307       0.00074309       0.01183863
Ti       1.59716701       4.89103988      15.99455245      -0.00176049       0.00356631       0.00336060
Ti       4.04646054       9.67220877      15.93597019       0.00410145       0.00867877       0.01033739
Ti       2.37499122       7.52499327      16.72816056      -0.00303296      -0.00204791       0.00067542
Zr       4.91241389       2.65633847      16.72791375      -0.01371947      -0.00493710      -0.00173089
Ti       4.04657837       5.37790095      17.51973936       0.00022808      -0.00685632      -0.00717226
Ti       1.59703790       0.42048949      17.46093063      -0.00525448      -0.00384949      -0.00267299
Ti       4.92204018       8.03896579      18.08826927       0.00350027       0.00385266      -0.00324412
Ti       2.37638368       3.14909032      18.17034256       0.00686774       0.00249787      -0.00987276
Ti       1.44255494       5.75249339      18.79096762      -0.00418892       0.00413813       0.00040379
Ti       3.99395480       0.84275575      18.87774004       0.00570667       0.00131206      -0.00720106
Ti       2.28376910       8.40066851      19.55933824      -0.00702294      -0.00662689       0.00562534
Ti       4.82779629       3.58932360      19.60990257      -0.00148828      -0.00570947       0.00305257
Ti       1.54889918       1.45325546      20.15481540      -0.00854574      -0.01155625       0.01234380
Ti       4.13228782       6.37425356      20.17656136       0.00620802      -0.00410008       0.01431070
Ti       5.02397350       9.15104328      21.02422975       0.01083722      -0.01196518       0.00233912
Ti       2.45531571       4.32264379      21.00964653       0.00112531      -0.00716267       0.00586905
Ti       3.75594811       2.04028507      21.73814237       0.00301780       0.00211838       0.00098427
Ti       1.22794945       6.90185159      21.76388282      -0.00963948       0.00161859      -0.01565362
