52
Lattice="4.6568 0.0 0.0 0.0 7.770572 0.0 0.0 0.0 41.044546" Properties=species:S:1:pos:R:3:forces:R:3 job_name=Segregation-1sol-addvac-CSL7-Al-Al-24-d-0.00 top_level=Segregation-1sol-addvac solute=Al energy=-389.85348665 stress_kbar_3x3="_JSON [[-13.10156225, 0.1331554, -1.52603797], [0.13315536, -19.80315381, -0.09267004], [-1.52603798, -0.09267005, -0.96701254]]" pbc="T T T"
Ti       2.38877846       7.24812035       8.68447619       0.00253700       0.00021395       0.00879267
Ti       0.06523725       5.35511160       8.91336255       0.00436239       0.00706212       0.01090852
Ti       2.39476222       2.24239536       9.44155419       0.00176098       0.00284468       0.01025534
Ti       0.06885165       0.54443467       9.78519672       0.00185155      -0.01410880       0.00002713
Ti       2.39600071       4.96754957      10.40717400       0.00128505       0.00894078      -0.01034651
Ti       0.06853351       3.37263120      10.72867231       0.00231599       0.00424490      -0.00063189
Ti       2.40626851       0.10381743      11.34720675       0.00228294       0.00108381      -0.01059024
Ti       0.07900453       6.13610363      11.56587291       0.00175748      -0.00358153       0.00165257
Ti       2.40752473       2.78106134      12.26495059       0.00256764      -0.00507426      -0.00066163
Ti       0.08385523       1.11612958      12.62627447       0.00145104      -0.00028474       0.00409146
Ti       2.41134237       5.58387213      13.16283414       0.00181146      -0.00628628       0.00389761
Ti       0.07808372       3.91527206      13.56043711       0.00205551       0.00035408       0.00287830
Ti       2.41674215       0.58741677      14.22053991       0.00173206       0.00096164       0.00219063
Ti       0.09858203       6.65615914      14.43508451       0.00113743      -0.00149929      -0.00353734
Ti       2.40442292       3.35193083      15.13978231       0.00182483       0.00363928      -0.00147623
Ti       0.11261577       1.70325931      15.50672119       0.00196924       0.00425853      -0.00228244
Ti       2.45180837       6.11273299      15.99235516       0.00321264       0.00134722      -0.00323573
Ti       0.02437391       4.44087680      16.46906113       0.00094564      -0.00004557      -0.00810766
Ti       2.49606191       1.14156017      17.11004642       0.00117533       0.00065998      -0.00328492
Ti       0.15734958       7.22230166      17.21236447      -0.00065003      -0.00024486      -0.00526811
Ti       2.24336895       3.87240623      17.99457521      -0.00333372      -0.00406096      -0.00592467
Ti       0.26554120       2.12853468      18.46822970       0.00055601      -0.00038892      -0.00197937
Ti       2.38327199       6.66728415      18.68707623      -0.00153837       0.00274074      -0.00626371
Ti       4.13466861       4.84900993      19.35921090      -0.00274929      -0.00187376      -0.00692486
Al       2.69139098       1.75223651      20.04614540      -0.00153423      -0.00501688       0.00389158
Ti       0.35245829       7.66904987      20.04119627       0.00039384       0.00682476      -0.00101700
Ti       1.24957437       4.85225772      20.73269356       0.00752648      -0.00038178       0.00989149
Ti       3.00759726       6.66811716      21.40989469      -0.00260681       0.00063227       0.00215200
Ti       0.46085210       2.13103412      21.62389773       0.00177047       0.00158552      -0.00077756
Ti       3.13837902       3.87682966      22.09945018      -0.00245811      -0.00344468       0.00211841
Ti       0.57581342       7.22965761      22.87713598       0.00157320       0.00235813       0.00109168
Ti       2.89462487       1.14347532      22.98969783      -0.00296845       0.00052973      -0.00234915
Ti       0.70332146       4.44667660      23.62153959      -0.00162548      -0.00098269      -0.00047263
Ti       2.93789928       6.12156521      24.09534610      -0.00203323       0.00049885       0.00094574
Ti       0.61780834       1.70538966      24.58733267      -0.00133510       0.00382720       0.00225410
Ti       2.98608230       3.35883747      24.95143958      -0.00070067      -0.00086045      -0.00143225
Ti       0.63107713       6.65122179      25.65426532      -0.00088739      -0.00254837       0.00095005
Ti       2.97083364       0.58740440      25.88745260      -0.00139140       0.00476364       0.00288451
Ti       0.65242717       3.90427428      26.52652883      -0.00129887      -0.00284107      -0.00299038
Ti       2.97526259       5.55965562      26.91030062      -0.00190110      -0.00268079      -0.00533863
Ti       0.64683321       1.14652925      27.49770340      -0.00164461       0.00045884      -0.00203118
Ti       2.97748326       2.80998076      27.82141972      -0.00156837      -0.00355275      -0.00195224
Ti       0.65342410       6.09075413      28.47388253      -0.00114469       0.00110995       0.00038979
Ti       2.98289254       0.00584443      28.76490318      -0.00213587       0.00171820       0.00520991
Ti       0.65747416       3.36655559      29.41662052      -0.00194994      -0.00357476       0.00377544
Ti       2.98738911       5.07820903      29.74843864      -0.00212702       0.00179175       0.01225614
Ti       0.66104684       0.60445507      30.31983274      -0.00168229       0.00747555       0.00687009
Ti       2.99105477       2.20814846      30.60044075      -0.00132740      -0.00019695       0.01597493
Ti       0.66267497       5.52514574      31.28732928      -0.00034800      -0.01239803       0.00510549
Ti       2.99020439       7.23963612      31.59127013      -0.00279385       0.00040784      -0.00895469
Ti       0.66382896       2.60765210      32.09598521      -0.00192939       0.01006555      -0.00829756
Ti       2.99372284       4.49007739      32.40291178      -0.00219252      -0.00647132      -0.01432702
