100
Lattice="4.4265 -2.555641 0.0 3.767997 6.526363 -0.031456 0.0 0.0 61.781652" Properties=species:S:1:pos:R:3:forces:R:3 job_name=Segregation-1sol-addvac-CSL13-Al-Al-49-d-0.01 top_level=Segregation-1sol-addvac solute=Al energy=-761.72634648 stress_kbar_3x3="_JSON [[-27.43049541, -2.36715168, 0.99495221], [-2.36715163, -29.72341822, 0.94044135], [0.99495219, 0.94044144, -1.22223319]]" pbc="T T T"
Ti       2.42598831      -0.96025061       8.80162167      -0.00321700      -0.00370515       0.00979000
Ti       5.73557981       1.47921162       8.78538082      -0.00223158      -0.00493326       0.00902824
Ti       4.13176735       3.75630422       9.72269639      -0.00390832      -0.00619854       0.00484548
Ti       5.19929281      -1.21051946       9.73865841      -0.00407779      -0.00537556       0.00419718
Ti       3.57877147       1.01836112      10.39166419      -0.00169669      -0.00752975       0.00070651
Ti       6.87306417       3.46703615      10.37452082      -0.00529388      -0.00474829       0.00150572
Ti       6.32811162       0.80343292      11.35295621      -0.00105434       0.00196644       0.00405657
Ti       1.54244343      -0.78390148      11.36846758       0.00151102      -0.00026338       0.00416850
Ti       4.24626250      -1.01604172      12.29182664      -0.00104785      -0.00611277       0.00645436
Ti       4.77598700       3.03184969      12.27661326      -0.00618417      -0.00310261       0.00675085
Ti       2.66209256       1.19630758      13.11280758       0.00145247      -0.00246088       0.00137312
Ti       7.48419342       2.76423841      13.09718089      -0.00318373       0.00011169       0.00120893
Ti       5.48285073       0.94327141      14.17751141      -0.00285975      -0.00283701       0.00189282
Ti       5.84958724       5.08108922      14.16434118      -0.00149550      -0.00362687       0.00182181
Ti       0.52004944       0.78601811      14.90302601      -0.00126620       0.00019575       0.00059671
Ti       3.76808673       3.25720926      14.88526367       0.00038496      -0.00011531       0.00136284
Ti       3.15935514       0.62044216      15.80208597      -0.00089172      -0.00214195       0.00675172
Ti       6.73433774       2.90854260      15.78555995      -0.00257038      -0.00227360       0.00653661
Ti       5.02518223       5.33652577      16.99132553       0.00158014       0.00143916       0.00492651
Ti       1.68415827       2.91565570      17.00602878      -0.00026849       0.00305130       0.00431522
Ti       3.98899035      -1.48732864      17.49257317      -0.00195841       0.00052230      -0.00182473
Ti       4.48834531       2.57823782      17.47698868      -0.00006644      -0.00210388      -0.00252684
Ti       7.04625224       2.57019236      18.55196605      -0.00121443       0.00152852       0.00338862
Ti       2.70103101       0.72777763      18.56636298       0.00273400      -0.00091859       0.00307102
Ti       5.28448008       0.74120697      19.85751294       0.00028263       0.00474395      -0.00260998
Ti       5.76628964       4.81647245      19.84433123       0.00270535       0.00276659      -0.00243397
Ti       0.32874259       0.51512885      20.09321640       0.00124392      -0.00227088      -0.00285421
Ti       3.62078488       2.96514285      20.07460687      -0.00179943       0.00058849      -0.00357609
Ti       6.85788559       2.62068781      21.32375100       0.00133661       0.00248713      -0.00943506
Ti       2.83556220       0.59486175      21.34107096      -0.00202418       0.00359008      -0.00923708
Ti       1.64778361       2.81158014      22.69646845      -0.00142730      -0.00389465      -0.00358817
Ti       4.93832088       5.26549044      22.67693826      -0.00049761      -0.00508892      -0.00388409
Ti       3.93031191      -1.60199491      22.74486976       0.00253845       0.00313311      -0.00216627
Ti       4.40506646       2.48245130      22.72725208       0.00048631       0.00812241      -0.00177292
Ti       2.80318920       0.60105989      24.09154917      -0.00097794       0.00191286       0.00272645
Ti       6.87092983       2.58945908      24.07728086       0.00049461       0.00177656       0.00341709
Ti       3.61214748       2.94506451      25.37287079      -0.00179135      -0.00064223      -0.00233563
Ti       0.30680139       0.47854705      25.40593025       0.00029207      -0.00462304      -0.00258810
Ti       5.26612480       0.71155567      25.53408822       0.00181370       0.00611321       0.00144118
Ti       5.74783635       4.79605442      25.49829394       0.00234221       0.00477869       0.00203323
Ti       2.70085927       0.68772270      26.86157357       0.00050128       0.00126890      -0.00084348
Ti       6.94551070       2.54155576      26.85969955       0.00190766      -0.00044252      -0.00306487
Ti       3.80907818      -1.54673534      27.94863431       0.00239739       0.00394884       0.00625458
Ti       4.42015090       2.57674328      27.98875119       0.00066863       0.00296201       0.00420530
Ti       4.92022371       5.40000796      28.30238357       0.00324412       0.00136579      -0.00346525
Ti       6.00259577       0.24738947      28.45028086       0.00218177       0.00289038      -0.00087178
Ti       6.70366029       2.79619650      29.62168027      -0.00174278       0.00018481       0.00324857
Ti       3.10048263       0.56921518      29.66426090       0.00386251       0.00109946       0.00376169
Al       4.82104639      -1.76842654      30.45765923       0.00063509       0.00392167      -0.01248454
Ti       3.71467009       3.17591345      30.54065005       0.00079162       0.00243265      -0.00269256
Ti       5.71952700       5.03764203      31.19399596      -0.00029150       0.00412513       0.00019756
Ti       5.48000010       0.87449821      31.30133913       0.00364317       0.00251789      -0.00068440
Ti       3.09218845       5.29951534      32.30702327       0.00177112       0.00333701      -0.00557034
Ti       2.46064114       1.12636193      32.33817970       0.00071366       0.00145912      -0.00457823
Ti       4.16095502      -0.99535691      33.04079923       0.00126631       0.00225561       0.00177385
Ti       4.68763740       3.00102877      33.08174935       0.00234126       0.00144754      -0.00022518
Ti       6.27904774       0.68700131      34.06007206      -0.00038562      -0.00013204       0.00067324
Ti       1.57307252      -0.86455121      34.16145901       0.00108080       0.00257816      -0.00020825
Ti       3.62385097       1.01254148      34.91113981       0.00096579       0.00114869      -0.00505480
Ti       6.79650771       3.37063784      34.92547874      -0.00230113       0.00021648      -0.00215687
Ti       5.06827118      -1.24569263      35.72315191      -0.00150933       0.00415105      -0.00113880
Ti       4.13325876       3.67409117      35.74242581       0.00357300      -0.00289519      -0.00232683
Ti       5.75400559       1.31223515      36.92257210       0.00094996      -0.00037826       0.00691243
Ti       2.36777205      -1.10632348      36.94700663       0.00194185      -0.00249858       0.00708242
Ti       3.42872007       5.74625845      37.45976949      -0.00387516       0.00016552       0.00148695
Ti       2.87037344       1.63302599      37.48178679      -0.00031826      -0.00051487      -0.00113851
Ti       4.72978470       3.50380658      38.47133193      -0.00478591       0.00025412       0.00244490
Ti       4.74753707      -0.83866684      38.50391079       0.00320097      -0.00585497       0.00107895
Ti       2.11597207       3.51456942      39.76776317      -0.00015056      -0.00447305       0.00318346
Ti       1.65089815      -0.56637403      39.80524829      -0.00225727      -0.00319234       0.00301071
Ti       7.06755958       3.73608458      40.03733184      -0.00028303      -0.00184501      -0.00493315
Ti       3.78550747       1.29379396      40.05975586      -0.00148810      -0.00065068      -0.00544650
Ti       4.55456205       3.67142125      41.25935787       0.00139449      -0.00306698       0.00086887
Ti       4.97701978      -0.92874866      41.27753322      -0.00249687      -0.00033164       0.00396375
Ti       5.74478668       1.44508756      42.61694036      -0.00206653       0.00129816       0.00323285
Ti       2.45631693      -1.01048842      42.63209418       0.00221573      -0.00056113       0.00290221
Ti       2.98966037       1.77423600      42.69201962       0.00029808      -0.00126048      -0.00336090
Ti       3.46184143       5.85352023      42.67700362       0.00151382      -0.00007198      -0.00261744
Ti       4.94230637      -0.89282985      44.03575613       0.00056912       0.00102628      -0.00351354
Ti       4.59836521       3.65438805      44.01923646       0.00074478       0.00134528      -0.00121479
Ti       1.64116396      -0.53312946      45.46301968       0.00488343       0.00507303       0.00491723
Ti       2.13229140       3.53620685      45.44716718       0.00354602       0.00541120       0.00414856
Ti       7.08303838       3.77040351      45.32562027       0.00107635       0.00004713       0.00066794
Ti       3.79630647       1.31612026      45.34038976      -0.00008456       0.00095381       0.00228775
Ti       4.86874135      -0.85207512      46.80329006       0.00099267       0.00306800       0.00310480
Ti       4.66810582       3.61556384      46.78822526       0.00277255       0.00133021       0.00210977
Ti       2.99296865       1.74935461      47.96672175       0.00063040       0.00272032      -0.00436556
Ti       3.43066803       5.84682570      47.95163244       0.00145645       0.00264973      -0.00284549
Ti       2.42386521      -0.98944654      48.30273399       0.00324824       0.00008054      -0.00025837
Ti       5.76866044       1.42886868      48.28702652      -0.00003593       0.00199773       0.00081372
Ti       4.36990300       3.67996560      49.54185892       0.00120231      -0.00082247      -0.00310598
Ti       5.07225505      -1.07704348      49.55777888      -0.00048550       0.00083553      -0.00289409
Ti       3.64033016       1.13232329      50.60041205      -0.00033117      -0.00107090      -0.00379288
Ti       6.99827025       3.54740449      50.58626674      -0.00044584      -0.00045988      -0.00841467
Ti       2.05886271       3.37976547      51.26324594       0.00031364      -0.00421868      -0.00350135
Ti       1.53863458      -0.67289085      51.28204359      -0.00152911       0.00041317      -0.00265725
Ti       4.77155802       3.17261881      52.16333533      -0.00260542      -0.00345244      -0.00113631
Ti       4.43205869      -0.98021454      52.18020229      -0.00203453      -0.00252376      -0.00353378
Ti       2.64607387       1.34152911      53.05039540      -0.00195400      -0.00184621      -0.01144127
Ti       3.24658669       5.34255294      53.03437456       0.00076815      -0.00327798      -0.00632818
