52
Lattice="5.088765 0.0 0.0 0.0 5.495746 0.0 0.0 0.0 48.722931" Properties=species:S:1:pos:R:3:forces:R:3 job_name=Segregation-1sol-addvac-C1-V-V-36-d-6.31 top_level=Segregation-1sol-addvac solute=V energy=-396.55608685 stress_kbar_3x3="_JSON [[-19.98579393, -0.07277301, -0.07148017], [-0.072773, -16.29894751, 0.54892592], [-0.07148017, 0.54892592, -1.28805665]]" pbc="T T T"
Ti       0.87585664       4.40143831       9.07218253      -0.00573596      -0.00410349      -0.00467595
Ti       5.06852194       1.65346287       9.07208030       0.00643538      -0.00378231      -0.00483463
Ti       2.41340410       2.36638337      10.13436934      -0.00548085      -0.00325422       0.00373166
Ti       3.53109627       5.11418586      10.13438149       0.00588230      -0.00252291       0.00362250
Ti       0.85755989       0.32100118      11.34076387       0.00248892       0.00517701       0.01430844
Ti       5.08702285       3.06876063      11.34047915      -0.00258594       0.00479007       0.01431984
Ti       3.35906345       1.18201222      12.57985981       0.00118803      -0.00158174       0.00684112
Ti       2.58567133       3.92952343      12.58031443      -0.00000965      -0.00200013       0.00583691
Ti       5.07824998       4.71805081      13.83543440       0.00369025      -0.00121146       0.00350328
Ti       0.86603364       1.97060800      13.83505908      -0.00266746      -0.00147096       0.00308090
Ti       2.54646223       5.45750388      15.03901484       0.00271942       0.00038272      -0.00062966
Ti       3.39907671       2.70976549      15.04107513      -0.00257014       0.00024241      -0.00060183
Ti       0.83017008       3.51858451      16.28628686       0.00088929      -0.00077482       0.00049541
Ti       0.02911072       0.76993778      16.28618417      -0.00099132      -0.00108646       0.00053622
Ti       3.38593388       4.31494898      17.51883967       0.00282704      -0.00343084       0.00536146
Ti       2.55908844       1.56526446      17.52035993      -0.00373212      -0.00380490       0.00475506
Ti       0.01382489       2.32797319      18.74792108      -0.00369479      -0.00043672      -0.00220635
Ti       0.84118062       5.07589353      18.75346734       0.00382970       0.00016507      -0.00007852
Ti       3.36713163       0.37255626      19.98131495       0.00030452      -0.00023130       0.00051198
Ti       2.58177894       3.11964058      19.97776015       0.00021895      -0.00099191       0.00043099
Ti       0.02656349       3.89651831      21.21320278       0.00264986      -0.00072559       0.00380068
Ti       0.82914539       1.14957633      21.21017853      -0.00385759       0.00003496       0.00418457
Ti       2.57086705       4.64817327      22.41059430       0.00312617      -0.00231480      -0.00082525
Ti       3.36115219       1.90009129      22.42384751      -0.00246446      -0.00067293      -0.00052393
Ti       0.78707190       2.70720092      23.79492937      -0.00094867      -0.00424360      -0.00346287
Ti       0.06924197       5.45621800      23.77405621      -0.00014412      -0.00047338      -0.00546871
Ti       2.56242829       4.68006410      25.14115562      -0.00144077       0.00295890      -0.00094939
Ti       3.38304721       1.92677168      25.16347474       0.00091462      -0.00169528      -0.00227567
Ti       0.03519664       3.90766745      26.32877319      -0.00063547       0.00388761      -0.00266350
Ti       0.81683706       1.14479151      26.34380045       0.00260420      -0.00264332       0.00230452
Ti       2.55141537       3.10815330      27.60012823       0.00184764      -0.00175479      -0.00500381
Ti       3.36349578       0.32947346      27.60832808      -0.00092880      -0.00228803      -0.00137355
Ti       5.02543194       2.34597776      28.75941693      -0.00309450      -0.00112782       0.00876083
Ti       0.84403701       5.06639290      28.80635984      -0.00191593      -0.00517275       0.00770207
V        3.41971768       4.32972121      29.97531281       0.00980544       0.00228077       0.00043073
Ti       2.52024830       1.58471334      29.98466680      -0.00449752       0.00054261       0.00273291
Ti       0.82578587       3.56745633      31.16322055       0.00069245       0.00859126      -0.00645472
Ti       5.01852811       0.79182772      31.20345399       0.00007459       0.00426924      -0.00621207
Ti       2.53906682       0.03009036      32.36631281       0.00425413       0.00157436       0.00050061
Ti       3.37538648       2.80919504      32.37673325      -0.00234650       0.00088437      -0.00119573
Ti       0.85748414       1.97424535      33.63730446      -0.00218517       0.00561137      -0.00421136
Ti       0.00620757       4.70734642      33.65876558       0.00042284       0.00031332      -0.00312189
Ti       3.41515269       1.22248410      34.81652813      -0.00023124       0.00317305      -0.00154704
Ti       2.52598916       3.96474569      34.84864166      -0.00274723      -0.00207568      -0.00759058
Ti       0.03290857       3.17713840      36.09966648      -0.00041790      -0.00028383      -0.00857017
Ti       0.81905393       0.43760925      36.09515900       0.00066796       0.00153022      -0.00436132
Ti       3.41200945       5.07531503      37.32199685       0.00373927       0.00618975      -0.00987772
Ti       2.55072764       2.31831663      37.32521267      -0.00645611       0.00524447      -0.01146130
Ti       0.99951147       4.35933185      38.53274777       0.00453769      -0.00013479       0.00115106
Ti       4.96234977       1.60894797      38.54879383      -0.00684359       0.00066548       0.00053094
Ti       3.43203987       3.65636005      39.58939131      -0.00597071      -0.00084302      -0.00001129
Ti       2.52640676       0.90523498      39.59675758       0.00878385      -0.00137523       0.00075411
