52
Lattice="4.6568 0.0 0.0 0.0 7.770572 0.0 0.0 0.0 41.044546" Properties=species:S:1:pos:R:3:forces:R:3 job_name=Segregation-1sol-addvac-CSL7-Al-Al-25-d-0.00 top_level=Segregation-1sol-addvac solute=Al energy=-389.9340018 stress_kbar_3x3="_JSON [[-13.58745992, 0.07247557, -1.06916848], [0.07247558, -23.04945562, -0.09764649], [-1.0691685, -0.09764648, -1.30464037]]" pbc="T T T"
Ti       2.37362186       7.28008049       8.64459910       0.00581750      -0.00590637      -0.01389333
Ti       0.06254477       5.39161927       8.90197670       0.00518136       0.00142652      -0.01255714
Ti       2.38086987       2.27859974       9.41773035       0.00627864      -0.00563744      -0.00330093
Ti       0.05268771       0.57049187       9.75941040       0.00549547       0.00506634       0.00909298
Ti       2.38978379       5.00526710      10.37659217       0.00538859      -0.00605411       0.01807636
Ti       0.06266235       3.40933325      10.70320235       0.00465201       0.00278926       0.01064914
Ti       2.38655025       0.12162743      11.29868154       0.00546599       0.00434976       0.01606314
Ti       0.06453976       6.15976743      11.55836580       0.00474904       0.00263032       0.00704191
Ti       2.39322821       2.80379518      12.23010243       0.00473914       0.00758972       0.00540267
Ti       0.06651943       1.13415973      12.59980855       0.00544313      -0.00653833      -0.00196643
Ti       2.39645154       5.60386269      13.13631655       0.00442880       0.00573684      -0.00280927
Ti       0.06790655       3.93707889      13.54490005       0.00410648       0.00464540       0.00382481
Ti       2.39724883       0.59707465      14.17397326       0.00414304      -0.00581431       0.00476706
Ti       0.08795976       6.67186841      14.43830664       0.00370650       0.00513342       0.00475857
Ti       2.39629696       3.36552972      15.10013074       0.00058547      -0.00306426       0.00519609
Ti       0.08584450       1.72897401      15.47383145       0.00224013      -0.00180248       0.00605203
Ti       2.42365718       6.10041415      15.96410845       0.00064553      -0.00199842       0.00366463
Ti       4.65191338       4.45766142      16.48071605       0.00091750       0.00210944       0.00293498
Ti       2.43189862       1.13969072      17.00843636       0.00165262      -0.00477044      -0.00019392
Ti       0.13269411       7.22823030      17.21493418       0.00077551       0.00003375       0.00670022
Ti       2.21614277       3.80288998      18.02313704       0.00854536       0.00990303       0.00563705
Ti       0.14199427       2.08471098      18.47914885      -0.00153218      -0.00472043       0.00025868
Ti       2.49015061       6.65677913      18.64632820       0.00893165       0.00059539       0.01279521
Ti       4.12134423       4.76578546      19.39290435       0.00532286       0.00041278       0.00438573
Al       0.36362356       7.49237486      20.04507568       0.00297459       0.01144904      -0.00540992
Ti       2.69085266       1.54599740      20.04522205      -0.00071089      -0.00107859       0.00041051
Ti       1.26018718       4.76775952      20.70124806      -0.00482710       0.00052819      -0.00210048
Ti       2.89387799       6.66219865      21.44354765      -0.01109472      -0.00106665      -0.00711424
Ti       0.58277018       2.08571839      21.61181382      -0.00060927      -0.00477921       0.00045116
Ti       3.16617675       3.80424977      22.07133903      -0.00791974       0.01036931      -0.00467301
Ti       0.59723304       7.23313701      22.87433894       0.00101677      -0.00323610      -0.00309016
Ti       2.95402179       1.13786790      23.08594354      -0.00050408      -0.00301780      -0.00165710
Ti       0.73358424       4.46075003      23.60763327      -0.00091828       0.00006246      -0.00120559
Ti       2.96248936       6.10581662      24.12183833      -0.00081969      -0.00566100      -0.00317699
Ti       0.64282324       1.73030016      24.61766036      -0.00203911      -0.00050517      -0.00677393
Ti       2.99271808       3.37081570      24.98641452      -0.00125844      -0.00047985      -0.00184529
Ti       0.63810888       6.66716508      25.64990231      -0.00347116      -0.00120934      -0.00321200
Ti       2.98433724       0.59685217      25.93058679      -0.00351982      -0.00089841      -0.00503295
Ti       0.66157292       3.92891859      26.54079249      -0.00358194       0.00048069      -0.00480306
Ti       2.98868575       5.58233861      26.93542711      -0.00439356      -0.00112370      -0.00107925
Ti       0.65963573       1.16047262      27.52204042      -0.00442366       0.00318534      -0.00220965
Ti       2.99227439       2.82836894      27.84973420      -0.00414175       0.00211586      -0.00003913
Ti       0.66770055       6.11528539      28.48717102      -0.00448549      -0.00152954       0.00347466
Ti       2.99873922       0.02641317      28.80437437      -0.00457027       0.00418217      -0.00437550
Ti       0.66885898       3.39093095      29.44066240      -0.00401593      -0.00186682      -0.00465702
Ti       3.00246333       5.10456433      29.77808943      -0.00459056      -0.00548129      -0.01394352
Ti       0.67069904       0.63406281      30.34717967      -0.00516268       0.00430411      -0.00627666
Ti       3.00003238       2.23176975      30.62974153      -0.00537604       0.00032330      -0.01317316
Ti       0.67623988       5.55542586      31.30617522      -0.00485936      -0.00208808      -0.01007919
Ti       3.00366264       7.27462668      31.62043713      -0.00457582      -0.00235317      -0.00040535
Ti       0.67242833       2.63378883      32.11501305      -0.00487341      -0.00264105       0.00157216
Ti       3.00699163       4.50738863      32.42106996      -0.00492872      -0.00410007       0.00784442
