52
Lattice="5.088765 0.0 0.0 0.0 5.495746 0.0 0.0 0.0 48.722931" Properties=species:S:1:pos:R:3:forces:R:3 job_name=Segregation-1sol-addvac-C1-Al-Al-36-d-6.31 top_level=Segregation-1sol-addvac solute=Al energy=-392.69918239 stress_kbar_3x3="_JSON [[-21.41390784, -0.0612941, -0.19355453], [-0.06129409, -16.8804312, 0.31763667], [-0.19355457, 0.31763665, -2.80280656]]" pbc="T T T"
Ti       0.87952815       4.40208472       9.02218289       0.00072418      -0.00220737       0.01300339
Ti       5.07319850       1.65405922       9.02240862       0.00067955      -0.00178757       0.01236460
Ti       3.53840651       5.11321267      10.08711464      -0.00424533       0.00398165      -0.00736316
Ti       2.41512809       2.36521620      10.08645356       0.00560735       0.00382239      -0.00763109
Ti       0.00580574       3.07104938      11.29641963      -0.00809202       0.00017212      -0.00292881
Ti       0.85963356       0.32311145      11.29675080       0.00782966       0.00103911      -0.00242125
Ti       2.58913884       3.93221553      12.53745559       0.00359044      -0.00080345       0.01468203
Ti       3.36504302       1.18467625      12.53733339      -0.00309492      -0.00185051       0.01356720
Ti       5.08638346       4.72050858      13.79263198      -0.00118129       0.00089270       0.00888375
Ti       0.86870619       1.97273937      13.79379285       0.00214597       0.00105196       0.00812871
Ti       3.40368778       2.71743590      14.99898287       0.00303749       0.00062594      -0.00935121
Ti       2.55362101       5.46426730      14.99728572      -0.00182573      -0.00014745      -0.00836652
Ti       0.83658355       3.52550379      16.24185279      -0.00088007      -0.00216496      -0.01688984
Ti       0.03368122       0.77599120      16.24143767       0.00184125      -0.00249029      -0.01712984
Ti       2.56601725       1.56889667      17.47591361       0.00206503       0.00033042       0.00027493
Ti       3.39086020       4.32126338      17.47728189      -0.00110600      -0.00065189       0.00085280
Ti       0.84683267       5.08743469      18.71398960       0.00224411      -0.00325560       0.01099179
Ti       0.02281181       2.33745353      18.70574018      -0.00261925      -0.00219678       0.01173126
Ti       3.37252692       0.38240988      19.94435945      -0.00084543      -0.00217281       0.01736337
Ti       2.59128550       3.12608477      19.94054062       0.00161789      -0.00362868       0.01569748
Ti       0.03580089       3.90712397      21.17760430      -0.00317328       0.00004595       0.00548356
Ti       0.83300517       1.16439128      21.17451738       0.00318488       0.00207434       0.00558028
Ti       2.57817834       4.65073106      22.37101772       0.00315694      -0.00058556      -0.00908793
Ti       3.35730592       1.90693433      22.39701661      -0.00328378      -0.00181671      -0.00570712
Ti       0.08508474       5.47827787      23.72054048      -0.00252212      -0.00012512      -0.00699738
Ti       0.77972214       2.72606949      23.77562294       0.00010854       0.00038769      -0.00753649
Ti       2.59361122       4.67479840      25.10232939       0.00359947      -0.00265882      -0.00069176
Ti       3.36986914       1.92306976      25.16086913      -0.00045587       0.00223503      -0.00247791
Ti       0.05411415       3.92735560      26.30708997      -0.00301528       0.00037728      -0.00240657
Ti       0.82538531       1.16359191      26.32061159      -0.00001168       0.00133237      -0.00018455
Ti       3.35292157       0.36376195      27.58086400       0.00325390      -0.00070719      -0.00084794
Ti       2.50212856       3.13357944      27.59093006      -0.00236037       0.00122316      -0.00022429
Ti       5.00169290       2.43145526      28.69689931      -0.00082409       0.00499849       0.00088164
Ti       0.77706110       5.15390100      28.83279147       0.00005602      -0.00527221      -0.00037667
Ti       2.61704711       1.57775753      30.01186864      -0.00186425      -0.00081135      -0.00512547
Al       3.31972852       4.32015554      30.01391197      -0.00349930      -0.00069693      -0.00605504
Ti       0.78101067       3.47142738      31.19293547       0.00005246       0.00770859      -0.00324111
Ti       4.97962599       0.70952873      31.33475887       0.00401098      -0.00480847      -0.00402419
Ti       2.45985473       0.01856246      32.42432055      -0.00225204      -0.00648442       0.00159439
Ti       3.37799118       2.77942021      32.45127868      -0.00072278       0.00767646      -0.00015477
Ti       0.86222371       1.96999603      33.71226785      -0.00196559      -0.00070463      -0.00206905
Ti       0.04228927       4.69673570      33.72764956       0.00170184       0.00142690       0.00018075
Ti       3.40473591       1.18192527      34.85597826       0.00128581      -0.00420038      -0.00636168
Ti       2.55249723       3.93273510      34.94492616      -0.00194858       0.00717448      -0.00766395
Ti       0.82519292       0.42518138      36.16440714      -0.00168820      -0.00429270      -0.00312710
Ti       0.02329046       3.15290577      36.18422228       0.00557925       0.00088515      -0.00461285
Ti       2.56169737       2.30314585      37.39073627      -0.00639824       0.00318845       0.00042751
Ti       3.42812940       5.07393195      37.39293104      -0.00063269       0.00418171       0.00401893
Ti       1.01730200       4.34586332      38.60344151      -0.00179018       0.00608650       0.00191024
Ti       4.97492930       1.59114160      38.63589479       0.00943512      -0.00453178       0.00260672
Ti       2.53501773       0.89392545      39.67548443      -0.00403215      -0.00718117      -0.00047697
Ti       3.44465418       3.64967225      39.66065729      -0.00047761       0.00531596       0.00130717
