64
Lattice="5.088765 0.0 0.0 0.0 9.739025 0.0 0.0 0.0 38.303587" Properties=species:S:1:pos:R:3:forces:R:3 job_name=Segregation-1sol-addvac-T2-V-V-40-d-2.77 top_level=Segregation-1sol-addvac solute=V energy=-484.6324608 stress_kbar_3x3="_JSON [[-12.71660597, 1.4497642, -0.43841545], [1.44976419, -12.92269318, -0.38946866], [-0.43841545, -0.38946866, -2.36018639]]" pbc="T T T"
Ti       2.82150496       9.60462583       8.65242618      -0.00121406      -0.00114047       0.00344266
Ti       0.27740437       4.73575979       8.65568695      -0.00107341      -0.00134912       0.00744919
Ti       3.44129986       6.69907558       9.20383273       0.01078856      -0.00333119      -0.00882423
Ti       0.89713585       1.83086196       9.20031417       0.01181940       0.00331514      -0.01191359
Ti       0.13076577       8.98585675       9.78725074       0.00211986       0.00010915      -0.00603373
Ti       2.67242555       4.11575373       9.79734310       0.00177377       0.00402144      -0.00534614
Ti       1.13099459       6.39808587      10.55890183      -0.00273899      -0.00772443      -0.00061949
Ti       3.67624496       1.52854410      10.55736525      -0.00308306      -0.00344945       0.00064700
Ti       2.81771109       8.58897174      11.15534168      -0.00185234       0.00299547       0.00608090
Ti       0.26921299       3.71627674      11.15996027      -0.00115223       0.00765034       0.00556586
Ti       1.06578423       1.03750929      11.81672366       0.00606908      -0.00112733       0.01784901
Ti       3.61047689       5.90744976      11.82584689       0.00578707      -0.00176362       0.01499338
Ti       0.22049704       8.13385259      12.59890518       0.00130418      -0.00082438       0.01874423
Ti       2.76305368       3.25767876      12.60830015       0.00122843       0.00220432       0.01686451
Ti       1.05620821       5.47475990      13.29576778       0.00282949       0.00200320       0.01449342
Ti       3.60127205       0.61273141      13.29838107       0.00238869       0.00180719       0.01789068
Ti       2.78337252       7.66500577      13.93770765      -0.00009147       0.00117650       0.01240412
Ti       0.23993980       2.79334343      13.94590889       0.00024024       0.00175165       0.01416762
Ti       1.10144992       0.15857765      14.66575494       0.00091664       0.00237727       0.01022104
Ti       3.64016564       5.01454399      14.67866187       0.00069567       0.00303531       0.00584182
Ti       0.24049415       7.25316304      15.37714917      -0.00077472       0.00318991       0.00131031
Ti       2.77146478       2.36176776      15.41772034      -0.00052571       0.00087431       0.00293584
Ti       3.64769909       9.43792774      16.03520228       0.00241219       0.00362518       0.00144100
Ti       1.09379596       4.57295962      16.03532848       0.00266945       0.00156407      -0.00154140
Ti       0.18471922       1.93531300      16.72881345      -0.00090755       0.00201054      -0.00012319
Ti       2.73889043       6.81618834      16.73469942      -0.00080342       0.00485222      -0.00161705
Ti       1.09489005       9.11346802      17.46233632       0.00160419       0.00441276      -0.00347693
Ti       3.62459831       4.16991025      17.47253127       0.00081521       0.00380327      -0.00291274
Ti       0.29522988       6.33047983      18.05054294      -0.00241026       0.00436136      -0.00072780
Ti       2.86940175       1.44757019      18.16433231      -0.00013021       0.00266728      -0.00208695
Ti       1.08404250       3.58504149      18.80596269       0.00058314       0.00372588      -0.00169762
Ti       3.77046863       8.44743865      18.82339627      -0.00245216       0.00477688      -0.00124311
Ti       2.65361913       5.76763490      19.57879880       0.00174738      -0.00008299       0.00099295
Ti       0.04340763       0.91882677      19.78882907       0.00227148       0.00173086      -0.00230301
Ti       1.35765631       8.08278580      20.07020452       0.00020201       0.00375264       0.00457899
Ti       3.80405064       3.26727792      20.31395089       0.00030098       0.00368798      -0.00013987
Ti       0.12462067       5.70586347      20.72744901      -0.00737206      -0.00230464       0.00520752
Ti       2.60225202       0.79516876      20.85033481       0.00124358       0.00145185       0.00304012
Ti       4.20886163       8.40607408      21.52414941      -0.00484263      -0.00460659       0.00816315
Ti       1.26544753       3.38772273      21.55728983       0.00361102       0.00489501       0.00363497
Ti       2.22083818       6.55557341      22.29854695       0.00068533      -0.00646452       0.00985481
V        4.62939418       1.59100891      22.40330636       0.00119215      -0.00036462       0.00429438
Ti       4.01274512       4.38685251      22.90972770      -0.00238910       0.00064850       0.00429320
Ti       1.37253398       9.27370972      22.95174940       0.00083625      -0.00619063       0.00228533
Ti       2.36285684       2.14358510      23.69150588       0.00159521      -0.00042598       0.00143995
Ti       4.95488374       6.97483197      23.72730483       0.00271130      -0.00562404      -0.00074177
Ti       3.93013008       9.56061591      24.22411302      -0.00258978      -0.00461885      -0.00278141
Ti       1.42846016       4.72009266      24.31730246      -0.00244960      -0.00116776      -0.00537024
Ti       4.85946321       2.49367086      24.93024341       0.00049992       0.00238391      -0.00932706
Ti       2.33568827       7.37782865      24.97670589      -0.00059027      -0.00310171      -0.01464512
Ti       4.01003013       5.13427745      25.69289009      -0.00268255      -0.00072486      -0.01779723
Ti       1.46353340       0.27597614      25.67872803      -0.00175559      -0.00098981      -0.01864310
Ti       4.80187600       7.88298433      26.45907379       0.00031064      -0.00569338      -0.01635482
Ti       2.24463370       2.98454834      26.45399076       0.00051427      -0.00394308      -0.01416945
Ti       4.02070455       0.80700095      27.10544428      -0.00574338      -0.00137588      -0.00940400
Ti       1.49298011       5.67471736      27.11752043      -0.00550612      -0.00168390      -0.00900074
Ti       4.89048707       3.48457475      27.74209625      -0.00298749      -0.00475720      -0.00458173
Ti       2.34798276       8.35776303      27.75807880      -0.00258985      -0.00621579      -0.00562659
Ti       3.89671544       6.07575329      28.47548346      -0.00304442      -0.00153167      -0.00418987
Ti       1.33316967       1.19762073      28.47440150      -0.00354780      -0.00028477      -0.00597747
Ti       4.67603202       8.65900623      29.08160382       0.00054928      -0.00153547      -0.00373671
Ti       2.13818145       3.78082092      29.06933035      -0.00079364      -0.00038152      -0.00385399
Ti       4.04032259       1.80168423      29.62097503      -0.00369412      -0.00239319      -0.01249672
Ti       1.51060895       6.67429577      29.63522096      -0.00252808      -0.00368854      -0.01082306
