64
Lattice="5.872 0.0 0.0 0.0 6.890708 0.0 0.0 0.0 43.394398" Properties=species:S:1:pos:R:3:forces:R:3 job_name=Segregation-1sol-addvac-T1g-Al-Al-47-d-6.48 top_level=Segregation-1sol-addvac solute=Al energy=-482.95618383 stress_kbar_3x3="_JSON [[-7.43205681, -0.00021577, -0.00084186], [-0.0002158, -16.30560441, -1.16605255], [-0.00084182, -1.16605259, -2.53831028]]" pbc="T T T"
Ti       5.87176921       3.41102755       8.88449212       0.00034345       0.00453472       0.01061444
Ti       2.93618104       3.41104338       8.88443514      -0.00030467       0.00459120       0.01084986
Ti       2.93591746       6.50172338       9.28451897      -0.00004279      -0.00000884       0.00896763
Ti       0.00002019       6.50169315       9.28447381       0.00003308       0.00013903       0.00905657
Ti       4.40400896       1.76525661      10.47758221       0.00015140      -0.00381358      -0.00118961
Ti       1.46794833       1.76523718      10.47682959      -0.00009689      -0.00361562      -0.00127733
Ti       1.46789950       4.69609092      10.83205369       0.00011941       0.00984399      -0.00694722
Ti       4.40402963       4.69648621      10.83232828      -0.00010232       0.00948792      -0.00654589
Ti       0.00046004       6.79229076      12.09696451       0.00008914       0.00395295      -0.00491463
Ti       2.93549601       6.79224966      12.09696451      -0.00009891       0.00390949      -0.00479979
Ti      -0.00004744       2.85845571      12.63841809       0.00003767       0.00133450       0.00590109
Ti       2.93602147       2.85846595      12.63841816      -0.00011679       0.00148397       0.00576539
Ti       1.46799039       5.01450036      13.78556339       0.00004826       0.00156713       0.00982162
Ti       4.40397268       5.01443611      13.78573901      -0.00003945       0.00158058       0.01018435
Ti       4.40397940       0.95880278      14.32516871       0.00009696       0.00202005       0.00990468
Ti       1.46798513       0.95802381      14.32566276      -0.00009887       0.00220335       0.00914942
Ti       2.93572259       3.11552891      15.47085484       0.00029586       0.00305168       0.00722475
Ti       0.00025610       3.11552225      15.47088759      -0.00028186       0.00297001       0.00695614
Ti       2.93575562       6.02277091      16.04673421       0.00013420       0.00113283       0.00596622
Ti       0.00019746       6.02274401      16.04675609      -0.00009268       0.00131163       0.00588204
Ti       1.46801324       1.30028284      17.22239607      -0.00001179      -0.00183587      -0.00044957
Ti       4.40396229       1.29967046      17.22333788       0.00002343      -0.00219699      -0.00047728
Ti       4.40396718       4.13747235      17.72238854      -0.00003254       0.00451393      -0.00200152
Ti       1.46803136       4.13838292      17.72452568      -0.00000353       0.00400701      -0.00251417
Ti       2.94005847       6.27396508      18.86601134       0.00025400       0.00315069      -0.00094434
Ti       5.86795270       6.27394675      18.86607075      -0.00025632       0.00330509      -0.00087905
Ti       2.93058826       2.39730796      19.45620528      -0.00015542      -0.00239235       0.00572263
Ti       0.00539086       2.39732353      19.45616458       0.00020621      -0.00246207       0.00592689
Ti       4.40401897       4.52916245      20.73433267      -0.00009593      -0.00124823       0.00088446
Ti       1.46800215       4.53311904      20.74343538       0.00003008      -0.00299506       0.00048490
Ti       4.40399177       0.48564149      21.01720397       0.00012068       0.00597821       0.00119528
Ti       1.46802158       0.47404267      21.02183942      -0.00007612       0.00663782       0.00284460
Ti       0.02216631       2.52083303      22.24891748       0.00125519      -0.00021573      -0.00817873
Ti       2.91387317       2.52082465      22.24890910      -0.00125219      -0.00010873      -0.00799042
Ti       5.84884634       5.89640947      22.86490212      -0.00010093      -0.00028045      -0.00048861
Ti       2.95921290       5.89640252      22.86494664       0.00004036      -0.00029291      -0.00077022
Ti       4.40402133       3.89135969      24.17365335       0.00010662      -0.00369445       0.00270239
Ti       1.46802895       3.89625186      24.19307871      -0.00006881      -0.00180419       0.00166450
Ti       4.40402350       1.05888555      24.27861945      -0.00010374      -0.00154168       0.00061047
Ti       1.46804041       1.05934841      24.34797095      -0.00001627      -0.00187542       0.00051580
Ti       5.84750138       5.81467369      25.68071001       0.00035797       0.00071660       0.00727966
Ti       2.96057052       5.81468060      25.68073275      -0.00037659       0.00070122       0.00756677
Ti       0.02483769       2.74240581      26.23978268      -0.00106399      -0.00328355      -0.00123118
Ti       2.91122613       2.74239696      26.23982956       0.00117869      -0.00334300      -0.00106872
Al       1.46803267       0.63966104      27.35965721       0.00005795      -0.00255418      -0.00446703
Ti       4.40403992       0.60537084      27.38024301      -0.00018570      -0.00443927      -0.00871107
Ti       1.46804360       4.73321296      27.86422076       0.00004845      -0.00131818      -0.00778001
Ti       4.40404150       4.63195454      27.86856281      -0.00010078      -0.00143693      -0.00563315
Ti       0.03413362       2.51054202      29.03422781       0.00018806      -0.00155330      -0.00199644
Ti       2.90192926       2.51053245      29.03423653      -0.00001507      -0.00146418      -0.00215863
Ti       2.91799351       6.54545351      29.60770784       0.00106386      -0.00232972      -0.00190741
Ti       0.01810676       6.54547284      29.60769215      -0.00104840      -0.00236578      -0.00172909
Ti       1.46808461       4.43162094      30.72124636      -0.00006645      -0.00359731      -0.00499179
Ti       4.40400575       4.41592127      30.75353055       0.00001584      -0.00548649      -0.00480308
Ti       4.40403847       1.48232514      31.24285975      -0.00007159      -0.00311633      -0.00120335
Ti       1.46805130       1.49830571      31.29322266       0.00005865      -0.00287421       0.00104178
Ti       2.93991478       6.28412707      32.52739580      -0.00172701       0.00329281      -0.00522030
Ti       5.86813794       6.28415410      32.52743637       0.00168390       0.00329071      -0.00534082
Ti       2.92734650       3.34196797      32.91476284      -0.00031786      -0.00788958      -0.01246817
Ti       0.00872021       3.34201054      32.91475631       0.00034281      -0.00798864      -0.01243860
Ti       4.40397341       1.19976173      34.07840583       0.00007460      -0.00242749      -0.00707249
Ti       1.46805869       1.20761977      34.10922720      -0.00002639      -0.00361635      -0.00482083
Ti       1.46807703       5.00785956      34.49530528      -0.00002342       0.00083012      -0.00469231
Ti       4.40401104       5.01084292      34.48535906       0.00001530      -0.00007258      -0.00458147
