64
Lattice="5.871999 0.0 0.0 0.0 6.890708 0.0 0.0 0.0 43.401158" Properties=species:S:1:pos:R:3:forces:R:3 job_name=Segregation-1sol-addvac-T1m-Al-Al-44-d-4.84 top_level=Segregation-1sol-addvac solute=Al energy=-482.9599354 stress_kbar_3x3="_JSON [[-7.20624021, -0.00018238, 0.00068295], [-0.00018239, -17.55268521, -0.05397858], [0.00068293, -0.05397855, -1.72968426]]" pbc="T T T"
Ti       4.40402850       5.00335483       8.90122346       0.00001003       0.00511620      -0.01192017
Ti       1.46802795       5.00388517       8.89911388      -0.00002946       0.00512638      -0.01117927
Ti       4.40403456       1.21271655       9.29836526      -0.00000448      -0.00069290       0.00161520
Ti       1.46799068       1.21387699       9.29471848       0.00000294      -0.00080082       0.00137598
Ti       2.93431036       3.36281788      10.49410674       0.00054866      -0.00877772       0.01572143
Ti       0.00173023       3.36279953      10.49404508      -0.00053027      -0.00870632       0.01593826
Ti       0.00050136       6.29426018      10.83952434      -0.00030926       0.00647860       0.01546307
Ti       2.93553680       6.29430024      10.83952688       0.00035841       0.00644451       0.01538014
Ti       4.40405955       1.49312046      12.10895299       0.00004948       0.00346535       0.00516264
Ti       1.46801414       1.49431674      12.10543136      -0.00006298       0.00414354       0.00715857
Ti       4.40401788       4.46380390      12.64902636       0.00011895      -0.00296355       0.00440998
Ti       1.46800180       4.46422480      12.65227181      -0.00003953      -0.00295004       0.00536284
Ti       2.93416013       6.61092006      13.80322883      -0.00081859       0.00117570       0.00162006
Ti       0.00190020       6.61093598      13.80320290       0.00087409       0.00103313       0.00166046
Ti       2.93377534       2.55659220      14.32861619      -0.00102081      -0.00203859      -0.00125508
Ti       0.00228555       2.55658841      14.32861222       0.00100375      -0.00207124      -0.00121867
Ti       4.40403012       4.69238700      15.47031251       0.00012384       0.00350162       0.00274807
Ti       1.46804482       4.69511551      15.47445210      -0.00012907       0.00177104       0.00048952
Ti       4.40405165       0.75382013      16.03959595      -0.00022342      -0.00278196       0.00812214
Ti       1.46803850       0.75098379      16.06201238      -0.00002134      -0.00345251       0.00499955
Ti       2.93679718       2.90044633      17.26988953      -0.00010268      -0.00466149       0.00204120
Ti       5.87132489       2.90046203      17.26985966       0.00007073      -0.00470409       0.00201932
Ti       2.92737043       5.73481768      17.68906277       0.00065253       0.00265886       0.00145306
Ti       0.00872690       5.73480081      17.68905313      -0.00069140       0.00273506       0.00155137
Ti       4.40409892       0.92190606      18.83256635       0.00000969      -0.00043404       0.00307376
Ti       1.46804328       0.93371214      18.86957327      -0.00009270      -0.00143623       0.00232869
Ti       1.46802946       4.09459075      19.44653700       0.00001647      -0.00128090       0.00164734
Ti       4.40405564       4.10640587      19.45608737       0.00006233      -0.00170574       0.00254362
Ti       5.82625801       2.15003835      20.86430721       0.00155037       0.00101171       0.00830996
Ti       2.98182139       2.15003071      20.86426161      -0.00151335       0.00108895       0.00846628
Ti       2.95200387       6.17794518      20.84155094      -0.00012961      -0.00102897       0.00177117
Ti       5.85608657       6.17795017      20.84154586       0.00011398      -0.00091358       0.00179964
Ti       1.46805487       4.10657783      22.27240658      -0.00008195       0.00027848      -0.00097533
Ti       4.40401751       4.09599977      22.28611212       0.00001938       0.00194234      -0.00106193
Ti       1.46802511       0.86062516      22.78111518      -0.00004286      -0.00044435      -0.00512443
Ti       4.40400941       0.87910394      22.87067252       0.00006878      -0.00137441      -0.00395051
Ti       0.01027376       5.71086351      24.04949443      -0.00189230      -0.00189772      -0.00735401
Ti       2.92573929       5.71086478      24.04946855       0.00193878      -0.00194342      -0.00743062
Ti       5.84880923       2.82263226      24.42608775      -0.00028677      -0.00090743      -0.01086486
Ti       2.95921318       2.82264983      24.42607930       0.00035373      -0.00095239      -0.01067464
Ti       1.46802178       0.66563836      25.61198009      -0.00008398       0.00435262      -0.00104816
Al       4.40400739       0.67482697      25.66309489      -0.00003066       0.00453978       0.00018634
Ti       1.46802570       4.58273678      26.22408555      -0.00009269       0.00004227       0.00312376
Ti       4.40392351       4.69162668      26.24342980       0.00017222       0.00031433       0.00392077
Ti       5.83979517       2.47671938      27.36453643      -0.00099218       0.00503265       0.00255940
Ti       2.96817086       2.47669319      27.36452671       0.00106509       0.00527927       0.00264598
Ti       5.85700527       6.55379595      27.88843544      -0.00135196      -0.00005105      -0.00076487
Ti       2.95100107       6.55383055      27.88849360       0.00139426      -0.00019633      -0.00084018
Ti       1.46801600       4.39490771      29.03956056       0.00005672       0.00439771      -0.01446371
Ti       4.40399192       4.40039813      29.04160018      -0.00014070       0.00508609      -0.01430604
Ti       1.46801788       1.52929161      29.62251433      -0.00005412      -0.00400205      -0.01277482
Ti       4.40396075       1.55285264      29.66914589       0.00000977      -0.00479658      -0.01457008
Ti       2.93115650       6.27734622      30.74595207       0.00067690       0.00551707      -0.00561728
Ti       0.00483185       6.27736033      30.74592811      -0.00079375       0.00554194      -0.00562610
Ti       0.00305870       3.36505264      31.28386388      -0.00043224      -0.00002230      -0.01462807
Ti       2.93290751       3.36507652      31.28383445       0.00050890      -0.00030006      -0.01425872
Ti       1.46796037       1.25807265      32.53558540       0.00025652      -0.01560672      -0.00907855
Ti       4.40396075       1.26853655      32.56050290      -0.00024116      -0.01477305      -0.00899402
Ti       4.40400052       5.22297486      32.92073495      -0.00030482       0.01037280      -0.00086581
Ti       1.46795742       5.21332656      32.93482339       0.00051374       0.01155720       0.00028322
Ti       2.92816282       3.06800619      34.10534646       0.00090823      -0.00249295       0.01568433
Ti       0.00776051       3.06809070      34.10536444      -0.00092756      -0.00276523       0.01602397
Ti       2.93046283       6.88331693      34.50580445       0.00018595      -0.00315271       0.00094191
Ti       0.00549453       6.88329391      34.50579780      -0.00022656      -0.00292574       0.00124291
