100
Lattice="4.4265 -2.555641 0.0 3.767997 6.526363 -0.031456 0.0 0.0 61.781652" Properties=species:S:1:pos:R:3:forces:R:3 job_name=Segregation-1sol-addvac-CSL13-V-V-49-d-0.01 top_level=Segregation-1sol-addvac solute=V energy=-765.52614641 stress_kbar_3x3="_JSON [[-26.53336556, -2.84912353, 0.71829374], [-2.84912348, -29.05707452, 1.49451263], [0.71829372, 1.49451265, -0.70343109]]" pbc="T T T"
Ti       5.95446743       1.84986193       8.82560976      -0.00236917      -0.00044375       0.00522680
Ti       2.63883903      -0.58760869       8.84113177       0.00114721      -0.00123063       0.00519280
Ti       5.39820804      -0.82284487       9.80796707      -0.00529804      -0.00111483       0.01128034
Ti       4.37075610       4.12103883       9.79202125       0.00051160      -0.00577878       0.01154915
Ti       7.08008049       3.85905665      10.45102086       0.00172033      -0.00068128       0.00054466
Ti       3.81618741       1.39187208      10.46659551      -0.00007870       0.00172579       0.00080294
Ti       6.52988111       1.19424720      11.37931402       0.00066592      -0.00177091      -0.00016910
Ti       1.78427611      -0.41619063      11.39547899      -0.00189142      -0.00004408       0.00114252
Ti       4.52826891      -0.63828014      12.39565015      -0.00064900      -0.00062747      -0.00447774
Ti       4.96563708       3.45941310      12.38031711      -0.00114673      -0.00020282      -0.00465217
Ti       3.31795977       5.71452569      13.17603313      -0.00152251      -0.00037998      -0.00379082
Ti       2.87801546       1.61714568      13.19129643       0.00093227      -0.00098141      -0.00388549
Ti       2.30088068      -1.03795956      14.16334728       0.00058350      -0.00034957       0.00221190
Ti       5.73301703       1.33153045      14.14763433       0.00079263      -0.00028384       0.00163381
Ti       4.01822417       3.66686417      15.04501841      -0.00123724      -0.00076379       0.00160098
Ti       0.75454758       1.20042322      15.06098684       0.00006014      -0.00089379       0.00120587
Ti       6.85581194       3.34315281      15.84027685      -0.00160963      -0.00037065       0.00041957
Ti       3.48217935       0.94024846      15.85591521      -0.00030403      -0.00140034       0.00073117
Ti       5.25034793       5.64384911      16.88995493      -0.00030094      -0.00102560       0.00071861
Ti       6.27724782       0.70058981      16.90553966      -0.00114047      -0.00067554       0.00108903
Ti       4.72107894       2.92870915      17.68066343      -0.00086272      -0.00175179      -0.00074344
Ti       4.18905063      -1.11530205      17.69787013      -0.00064883      -0.00178300      -0.00040113
Ti       7.38745475       2.72565499      18.54341002      -0.00183144       0.00015359       0.00006288
Ti       2.67979812       1.09187225      18.55972552      -0.00007285      -0.00108149      -0.00018158
Ti       5.84841455       5.01964940      19.68435927       0.00072329      -0.00103848       0.00151123
Ti       5.43595349       0.90888908      19.69960721      -0.00086387       0.00061682       0.00098498
Ti       3.73458498       3.18208562      20.27317929      -0.00142595      -0.00194608      -0.00153587
Ti       0.47563116       0.71451214      20.29240297      -0.00111992      -0.00246332      -0.00140386
Ti       6.79902918       2.83287357      21.28298279       0.00131820       0.00056053       0.00265939
Ti       3.06781726       0.63318992      21.29851538      -0.00140966       0.00099484       0.00207163
Ti       1.70476966       2.89775512      22.54520359       0.00014212      -0.00040089       0.00609278
Ti       5.00650793       5.33602970      22.52944811      -0.00211804       0.00025319       0.00612822
Ti       4.47238880       2.56158481      22.86948536       0.00232536       0.00189764       0.00435477
Ti       3.99251432      -1.51243643      22.88932426       0.00088133       0.00067823       0.00420828
Ti       2.75720872       0.69955421      24.06510230       0.00238712      -0.00056828       0.00315817
Ti       7.00195413       2.61013213      24.05294078       0.00123870       0.00025067       0.00169278
Ti       5.77563483       4.82304553      25.37883690      -0.00030587      -0.00278874       0.00016833
Ti       5.29485251       0.75496656      25.38902664      -0.00073536      -0.00179150       0.00048012
Ti       3.62805824       2.96924698      25.49806316       0.00285591       0.00339748      -0.00141020
Ti       0.34028682       0.52066138      25.53013111      -0.00013636       0.00311851      -0.00234025
Ti       2.82585450       0.60409146      26.81954224      -0.00058511       0.00202671      -0.00326702
Ti       6.89961848       2.61438981      26.80807145       0.00174897      -0.00354815      -0.00943968
Ti       1.66658836       2.80648169      28.21589936       0.00513683      -0.00024819      -0.00043254
Ti       4.93776082       5.25852730      28.20519730      -0.00006278       0.00328007       0.00017895
Ti       4.41948130       2.46932831      28.13021157      -0.00108022      -0.00305255      -0.00262620
Ti       3.94022347      -1.60790710      28.23221843      -0.00300419       0.00100660      -0.00151598
Ti       2.82021220       0.56708447      29.60056679       0.00215828       0.00215262       0.00153531
Ti       6.85713170       2.62271309      29.58839293      -0.00099698       0.00082896       0.00156628
Ti       3.66956301       2.91830636      30.71409693       0.00450949       0.00060203       0.00105395
V        0.31954717       0.42818731      30.73882736       0.00210153       0.00291056       0.00641898
Ti       5.74993448       4.81654913      31.00813813      -0.00158844      -0.00049392       0.00371681
Ti       5.29302907       0.55957924      31.05023543      -0.00176910      -0.00017052       0.00225896
Ti       7.14935451       2.44531439      32.32041419       0.00264308      -0.00135878       0.00319205
Ti       2.51788867       0.77628754      32.34489943      -0.00308018       0.00220029       0.00332801
Ti       4.02275272      -1.44336470      33.18929160      -0.00019648       0.00134306       0.00099375
Ti       4.52645219       2.56011927      33.22713523       0.00111036       0.00319013      -0.00008285
Ti       5.08883455       5.26589291      33.87852637       0.00061189       0.00188164      -0.00011464
Ti       6.08008807       0.38493344      33.95347880       0.00386941      -0.00014935       0.00282823
Ti       6.64089992       2.99345680      35.02154802       0.00273914      -0.00014641       0.00416516
Ti       3.27230539       0.55590270      35.03878114      -0.00193770       0.00019054       0.00294844
Ti       0.55591941       0.82894888      35.79023540       0.00178607      -0.00008052       0.00011398
Ti       3.83500307       3.31413192      35.79804276      -0.00203212       0.00305620       0.00184065
Ti       5.53392994       0.93809501      36.76050729       0.00227086       0.00139441      -0.00128695
Ti       5.83219102       5.12995427      36.74448303      -0.00105001       0.00147949       0.00001533
Ti       3.13630877       5.31350387      37.65936644       0.00011771       0.00193496      -0.00591907
Ti       2.62630906       1.26935470      37.66385828       0.00221164       0.00177842      -0.00572214
Ti       4.35372227      -1.04289767      38.44954408       0.00029127       0.00120567      -0.00498402
Ti       4.71634773       3.09959523      38.44087968       0.00022646       0.00015923      -0.00600575
Ti       1.53410533      -0.81962321      39.61704017      -0.00018773       0.00151337      -0.00204057
Ti       6.30815761       0.77247500      39.59393277       0.00133681       0.00122960      -0.00215948
Ti       3.61335545       1.02394634      40.22584479       0.00084023       0.00254336      -0.00264100
Ti       6.87136373       3.50022474      40.21431179       0.00107604       0.00264322      -0.00230201
Ti       4.99833821      -1.17528183      41.17859088      -0.00130135       0.00072234       0.00416485
Ti       4.26838625       3.59455867      41.16194003       0.00146035      -0.00023319       0.00389247
Ti       5.64216178       1.31340535      42.46673784       0.00213603      -0.00003087       0.00513201
Ti       2.33613745      -1.12889382      42.48560886      -0.00025674       0.00115278       0.00503068
Ti       2.86730786       1.65659939      42.77876717      -0.00245757       0.00013936       0.00250235
Ti       3.36355436       5.72087164      42.76316860       0.00101700      -0.00115684       0.00176522
Ti       4.78490657      -0.96063227      43.96318569       0.00319061      -0.00189367       0.00099618
Ti       4.56419376       3.51631190      43.94688014      -0.00468192       0.00075239       0.00228371
Ti       2.06133515       3.43415686      45.33091400       0.00414285       0.00057604       0.00149981
Ti       1.53692094      -0.61435376      45.34609775      -0.00160941       0.00318119       0.00096947
Ti       3.72535879       1.22696098      45.36205557      -0.00220025       0.00078836      -0.00137910
Ti       6.98728220       3.69442603      45.34669923       0.00093006      -0.00212267      -0.00116160
Ti       4.82699284      -0.94015130      46.75208206      -0.00090999      -0.00109016       0.00336166
Ti       4.55912361       3.56433658      46.73680108      -0.00184407      -0.00271364       0.00433405
Ti       5.68873889       1.37555007      48.19037416       0.00286181       0.00118659       0.00418148
Ti       2.36550176      -1.05602758      48.20636721      -0.00197968       0.00182759       0.00522604
Ti       2.92378092       1.70470016      47.96182929       0.00019000      -0.00260986       0.00064394
Ti       3.37403990       5.79421367      47.94824855      -0.00224600      -0.00264407       0.00037681
Ti       4.34655186       3.62955539      49.49217285      -0.00476344       0.00397338      -0.00762687
Ti       4.98797086      -1.09210085      49.50887501       0.00573075      -0.00229921      -0.00546665
Ti       1.49142465      -0.69335511      51.20738100       0.00067400      -0.00455190      -0.00732323
Ti       2.01185878       3.35926807      51.18907101      -0.00421737      -0.00225661      -0.00613674
Ti       3.59219294       1.11650619      50.57017437       0.00278545      -0.00247830      -0.01537380
Ti       6.95547948       3.52798194      50.55478641      -0.00323839       0.00187694      -0.01681202
Ti       4.72895010       3.15591657      52.13098857       0.00060747       0.00315418      -0.01685068
Ti       4.38552854      -0.99461650      52.14687395       0.00233133       0.00304367      -0.01508899
Ti       3.21361778       5.31142997      52.98729636      -0.00431257      -0.00185641       0.00286517
Ti       2.58240672       1.32688916      53.00173671      -0.00046087      -0.00475482       0.00444684
