64
Lattice="5.872 0.0 0.0 0.0 6.890708 0.0 0.0 0.0 43.394398" Properties=species:S:1:pos:R:3:forces:R:3 job_name=Segregation-1sol-addvac-T1g-V-V-35-d-1.29 top_level=Segregation-1sol-addvac solute=V energy=-486.92829309 stress_kbar_3x3="_JSON [[-5.90139121, 0.0042034, 0.00353484], [0.00420338, -15.9471527, -0.14766938], [0.00353484, -0.1476694, -1.71859865]]" pbc="T T T"
Ti       2.93603275       3.40761822       8.93612469      -0.00011292       0.00327306       0.01892111
Ti       5.87190842       3.40852132       8.93356170       0.00011189       0.00230251       0.01444991
Ti       2.93606464       6.49655589       9.33749408      -0.00008339       0.00255974       0.00133618
Ti       5.87185397       6.49825544       9.33455885       0.00013038       0.00264744      -0.00078577
Ti       4.40646740       1.75812990      10.52730216      -0.00105779      -0.00107814       0.01371829
Ti       1.46548446       1.75802754      10.52754342       0.00098621      -0.00033823       0.01296982
Ti       4.40496873       4.69217589      10.88639909      -0.00102805      -0.01021161       0.00758622
Ti       1.46699963       4.69223926      10.88611916       0.00093841      -0.01011607       0.00836782
Ti       2.93609908       6.78231986      12.15292703      -0.00034175       0.00447087      -0.00061053
Ti       5.87187068       6.78500042      12.15105620       0.00018456       0.00645756      -0.00048085
Ti       2.93592494       2.84638568      12.68381854       0.00049070      -0.00223105       0.00505121
Ti       5.87194648       2.84522542      12.69272059      -0.00006491      -0.00282249       0.00475033
Ti       1.46542892       4.99503165      13.83071493       0.00068520       0.00197261       0.00627864
Ti       4.40650962       4.99501870      13.83082552      -0.00088895       0.00219880       0.00571700
Ti       4.40660178       0.94296213      14.37621773      -0.00017039       0.00302699       0.00196607
Ti       1.46525802       0.94293200      14.37603275       0.00033979       0.00355926       0.00239430
Ti       2.93619397       3.09505193      15.51806724      -0.00127536      -0.00203043      -0.00230140
Ti       5.87165227       3.09584561      15.53018645       0.00129279      -0.00226710      -0.00219661
Ti       2.93594533       5.99247134      16.07970201      -0.00011367       0.00195032       0.00099221
Ti       5.87193808       5.99469376      16.09933281       0.00002547      -0.00018981       0.00259204
Ti       1.47509259       1.26388293      17.26496942       0.00030769      -0.00290321      -0.00043110
Ti       4.39671357       1.26375416      17.26515302      -0.00024529      -0.00280849      -0.00089416
Ti       4.40016892       4.11395264      17.77368366       0.00045102       0.00194826      -0.00067031
Ti       1.47156664       4.11386033      17.77352227      -0.00021992       0.00140951      -0.00000072
Ti       2.93538642       6.23479685      18.90139427      -0.00039530       0.00411259       0.00120811
Ti       0.00033533       6.22065195      18.92852888       0.00047714       0.00351885       0.00357447
Ti       5.87157114       2.37219043      19.44148888      -0.00007604      -0.00031230       0.00864313
Ti       2.93637317       2.35078450      19.50494022      -0.00008993      -0.00128941       0.00608957
Ti       4.39136565       4.46017072      20.80298927       0.00080616       0.00238981       0.00813035
Ti       1.48061878       4.45955178      20.80316370      -0.00094604       0.00173295       0.00744374
Ti       4.35047170       0.47353420      21.03131187      -0.00325817       0.00293004       0.00735575
Ti       1.52126789       0.47536764      21.03174532       0.00335309       0.00315064       0.00758701
Ti       5.86867807       2.44627836      22.21223761       0.00007451       0.00148333      -0.00302796
V        2.93938568       2.45639386      22.27131219      -0.00006032       0.00218844       0.00293477
Ti       0.00110781       5.92558194      22.82933376      -0.00026385       0.00214461      -0.00171932
Ti       2.93489106       5.91355189      22.86536225       0.00006839       0.00206331      -0.00202532
Ti       1.48961835       3.87603060      24.00863834       0.00098505      -0.00422289      -0.00439398
Ti       4.38293479       3.87741793      24.00936582      -0.00096920      -0.00390662      -0.00447783
Ti       1.48170559       1.04925603      24.29726708       0.00074342       0.00022949      -0.00698327
Ti       4.39014440       1.04927267      24.29805926      -0.00084157      -0.00007436      -0.00699699
Ti       0.00066839       5.81550548      25.59757553      -0.00015780      -0.00174776       0.00069697
Ti       2.93561094       5.80391737      25.62038173      -0.00015200      -0.00335183       0.00078571
Ti       5.87190631       2.82231179      26.16565475      -0.00008349      -0.00281162      -0.00787982
Ti       2.93634760       2.81461064      26.18515498       0.00021133      -0.00202014      -0.00857924
Ti       1.46305468       0.69093927      27.31641788      -0.00021340       0.00064965      -0.00815050
Ti       4.40923194       0.69087584      27.31648148       0.00030994       0.00075675      -0.00773817
Ti       4.40773574       4.72810287      27.83355004       0.00085220      -0.00266412      -0.01018062
Ti       1.46447198       4.72816200      27.83379031      -0.00092017      -0.00255933      -0.01049218
Ti       0.00013689       2.57225708      28.99598079      -0.00009129      -0.00203770      -0.00167870
Ti       2.93607046       2.57366063      29.00785176       0.00018188      -0.00272982       0.00050963
Ti       0.00012710       6.58766539      29.57197550       0.00033863      -0.00007343       0.00868996
Ti       2.93603517       6.58402336      29.56795750      -0.00015607      -0.00083872       0.00782674
Ti       4.40567397       4.45033956      30.70791417      -0.00064959      -0.00200038       0.00580207
Ti       1.46641635       4.45034890      30.70806223       0.00080558      -0.00193103       0.00596850
Ti       1.46582942       1.51340157      31.22096441       0.00094712       0.00108187      -0.00023569
Ti       4.40636167       1.51334700      31.22094635      -0.00098819       0.00169404      -0.00040980
Ti      -0.00005596       6.31496150      32.49693043       0.00054452      -0.01142439      -0.00806650
Ti       2.93613641       6.31443040      32.49544277      -0.00069296      -0.01092777      -0.00953075
Ti       2.93624540       3.35721446      32.87065400      -0.00061525       0.00856306      -0.01695938
Ti      -0.00010389       3.35851205      32.87374378       0.00050274       0.00783758      -0.01631200
Ti       1.46881226       1.22274227      34.05924857      -0.00013115       0.00275525      -0.00938673
Ti       4.40327861       1.22278653      34.05917534       0.00009153       0.00275626      -0.00871455
Ti       1.46910700       5.02247940      34.44488042       0.00041051       0.00204200      -0.01464923
Ti       4.40300661       5.02248310      34.44482925      -0.00029367       0.00206279      -0.01337762
