52
Lattice="5.088765 0.0 0.0 0.0 5.495746 0.0 0.0 0.0 48.722931" Properties=species:S:1:pos:R:3:forces:R:3 job_name=Segregation-1sol-addvac-C1-Al-Al-30-d-2.59 top_level=Segregation-1sol-addvac solute=Al energy=-392.4542341 stress_kbar_3x3="_JSON [[-12.96400639, 0.17471441, -3.08590923], [0.17471445, -15.10624866, -0.80303068], [-3.0859092, -0.80303067, -0.87910884]]" pbc="T T T"
Ti       2.18081073       0.54603461      39.79569712      -0.00731883      -0.01085130       0.00439226
Ti       0.55209499       1.56051786       9.40988325      -0.00165834      -0.00470114      -0.00266334
Ti       1.17580353       4.31666363       9.80859813      -0.00121545       0.00274001      -0.00113292
Ti       2.45805344       2.22954604      11.04140876       0.01849574      -0.00024409       0.00479310
Ti       3.63622898       5.32589175      10.52459612       0.00703571       0.00350032      -0.00914505
Ti       0.66579651       0.31867432      12.08005070       0.00491981       0.00443234      -0.00110933
Ti       4.95768587       3.06029884      11.68416237       0.00567484      -0.00411052       0.00121970
Ti       3.40450298       1.32321316      13.39568600       0.00209234       0.00110910       0.00066315
Ti       2.65554068       4.06270039      13.10359350       0.00731963       0.00419898      -0.00288473
Ti       4.96320072       4.75371541      14.55369116       0.00507608      -0.00431398       0.00475983
Ti       0.85304308       2.09893879      14.30975401       0.00805016       0.00574896      -0.00127935
Ti       3.20711708       2.78882999      15.72645767       0.00261882       0.00288302       0.00017431
Ti       2.40318064       0.02105871      15.64308440      -0.00144397       0.00041833      -0.00227246
Ti       0.75868681       3.63250400      16.97937902       0.00439001       0.00463155      -0.00159370
Ti       5.05828698       0.90008180      16.85016258       0.00080541       0.00131900       0.00036922
Ti       2.47061395       1.64748555      18.20091522      -0.00050387       0.00272600      -0.00066188
Ti       3.32418398       4.43019138      18.11226902      -0.00141633       0.00489145      -0.00178207
Ti       0.71818192       5.17996694      19.37851526      -0.00079260       0.00285154       0.00215474
Ti       4.99227467       2.42571579      19.36994497      -0.00193423       0.00023512       0.00101348
Ti       3.29428022       0.49276269      20.64462954       0.00025068       0.00137331       0.00080663
Ti       2.51903000       3.24421967      20.57484326      -0.00221514       0.00121323       0.00234742
Ti       5.07934024       4.00934044      21.86583032      -0.00315718       0.00027471       0.00445006
Ti       0.77006673       1.28753897      21.82406339      -0.00039209       0.00166505       0.00274277
Ti       2.45945492       4.82626083      23.03678323      -0.00082403       0.00307788      -0.00178630
Ti       3.32105958       2.09810544      23.04464150      -0.00009369       0.00115745      -0.00070016
Ti       0.75641630       2.78166991      24.41977514      -0.00180942       0.00055688      -0.00424323
Ti       0.00759609       5.48499462      24.34235112      -0.00007948      -0.00000586      -0.00483864
Ti       3.36616318       1.83036935      25.72250860       0.00201094       0.00062090      -0.00114480
Ti       2.62698076       4.55919316      25.71027907       0.00251298      -0.00173013      -0.00548108
Ti       5.06360380       3.86180392      26.96241725       0.00211761      -0.00015231       0.00149357
Al       0.83324656       1.11398923      26.85292574      -0.00240792      -0.00534569       0.00357123
Ti       3.37376125       0.40018198      28.12081167       0.00347184      -0.00076843       0.00698001
Ti       2.54550983       3.08725676      28.07718706       0.00213703      -0.00140763       0.00658854
Ti       0.94164568       5.04790361      29.33000266       0.00221469      -0.00205977       0.00123669
Ti       0.13866743       2.29369245      29.34540878       0.00069573       0.00161721       0.00284986
Ti       2.61539487       1.54533993      30.65165773       0.00079321       0.00149310      -0.00120414
Ti       3.48419947       4.26972486      30.48616025       0.00040146       0.00096455      -0.00301385
Ti       0.08773697       0.76564313      31.74630880      -0.00329676       0.00190104      -0.00405985
Ti       0.88197111       3.54179068      31.84799690      -0.00119758      -0.00137507      -0.00371098
Ti       3.55624424       2.66550215      33.07750764      -0.00010392      -0.00016590      -0.00184939
Ti       2.74854798       5.41264307      32.98903930      -0.00122740       0.00182707      -0.00347088
Ti       1.00572120       1.90940341      34.15240498      -0.00522676      -0.00281990      -0.00015074
Ti       0.02300575       4.74532104      34.40963625      -0.00517646       0.00380418       0.00502690
Ti       2.56055469       3.96713879      35.32934217      -0.00437319      -0.00513466       0.00469012
Ti       3.31305776       1.21124426      35.59672020      -0.00535715      -0.00025376       0.00820217
Ti       1.01581670       0.22132315      37.02697571      -0.00457879      -0.00737796      -0.00522974
Ti       0.20476848       2.97065181      36.63731403      -0.00566224       0.00252790       0.00131486
Ti       2.34194511       2.49368434      38.18594070      -0.00697955       0.00222620      -0.00216500
Ti       3.51688003       4.90243039      37.67881043      -0.01492963      -0.00469202      -0.00838528
Ti       0.34216068       4.22642746      39.30568810      -0.00753812      -0.01058300      -0.00193381
Ti       4.80214946       1.48336131      38.91182725      -0.00301646       0.00540426       0.00059970
Ti       3.79725435       3.37169257       8.92066542       0.01284186      -0.00529750       0.00545238
