64
Lattice="5.871999 0.0 0.0 0.0 6.890708 0.0 0.0 0.0 43.401158" Properties=species:S:1:pos:R:3:forces:R:3 job_name=Segregation-1sol-addvac-T1m-V-V-48-d-6.60 top_level=Segregation-1sol-addvac solute=V energy=-486.7421072 stress_kbar_3x3="_JSON [[-8.41253791, -0.00052796, -1.54e-06], [-0.00052796, -18.87051522, -1.49049992], [-1.56e-06, -1.49049992, -4.01095437]]" pbc="T T T"
Ti       1.46822222       5.02232191       8.87530460       0.00022420       0.00690950      -0.01049448
Ti       4.40384776       5.02226865       8.87529349      -0.00027585       0.00635820      -0.01028292
Ti       4.40406209       1.22608945       9.28366119       0.00007414      -0.00095289      -0.01709058
Ti       1.46797388       1.22619105       9.28371197      -0.00004923      -0.00075590      -0.01698221
Ti       2.93606496       3.38238435      10.46992476       0.00026398       0.00108467      -0.00861393
Ti      -0.00002504       3.38240182      10.46946847      -0.00013202       0.00104401      -0.00886781
Ti       2.93603013       6.30762009      10.82300574       0.00025316      -0.00409314      -0.00907367
Ti       0.00000334       6.30750413      10.82285832      -0.00023918      -0.00405967      -0.00912966
Ti       1.46782828       1.51517726      12.08726090       0.00030957       0.00052626      -0.00016386
Ti       4.40422828       1.51512615      12.08729748      -0.00037321       0.00050675       0.00104763
Ti       1.46817952       4.47779625      12.63218110       0.00036031       0.00144044       0.01231296
Ti       4.40389016       4.47779020      12.63229718      -0.00032130       0.00138562       0.01228973
Ti       2.93603114       6.63203265      13.78324380       0.00006918      -0.00710244       0.00973689
Ti       0.00003477       6.63175999      13.78298670      -0.00006698      -0.00744186       0.00981119
Ti       0.00002471       2.57717731      14.31709758      -0.00014602       0.00188440       0.00940959
Ti       2.93599989       2.57731989      14.31716023       0.00012711       0.00159378       0.00949616
Ti       4.40438431       4.72451573      15.46475286      -0.00006139      -0.00299838      -0.00050704
Ti       1.46765304       4.72458958      15.46474755       0.00011309      -0.00290081      -0.00044956
Ti       4.40402599       0.77123732      16.04632941      -0.00017601       0.00050160      -0.00244360
Ti       1.46800024       0.77132374      16.04627224       0.00015621       0.00062710      -0.00244256
Ti       0.00001599       2.92658099      17.25181748      -0.00003808       0.00065791      -0.00091869
Ti       2.93598554       2.92712390      17.25256432       0.00010253       0.00023824      -0.00102210
Ti      -0.00003499       5.76709643      17.70548548      -0.00002385      -0.00176169       0.00085781
Ti       2.93605406       5.76641839      17.70647312       0.00005542      -0.00175363       0.00045737
Ti       1.47199826       0.98414308      18.86336038      -0.00022927      -0.00125415       0.00713602
Ti       4.40001220       0.98410401      18.86339892       0.00020827      -0.00121096       0.00731587
Ti       1.46497578       4.09842242      19.46101259       0.00008671       0.00104295       0.00525349
Ti       4.40704906       4.09839795      19.46099226      -0.00010404       0.00103321       0.00508632
Ti      -0.00000537       6.21109076      20.82051480       0.00007062      -0.00171156       0.00607474
Ti       2.93603350       6.21431017      20.82094856      -0.00006395      -0.00144013       0.00546306
Ti      -0.00003700       2.16577590      20.93100576       0.00006015      -0.00213621       0.00693516
Ti       2.93604255       2.16995816      20.93318607      -0.00007110      -0.00176815       0.00661767
Ti       4.41402116       4.16859819      22.27574638       0.00109401       0.00185728       0.00493957
Ti       1.45799201       4.16862361      22.27574406      -0.00110002       0.00185157       0.00512321
Ti       1.48487523       0.84180195      22.88317110      -0.00004017      -0.00096875      -0.00157744
Ti       4.38715664       0.84179749      22.88314446       0.00001504      -0.00095074      -0.00157096
Ti       0.00006240       5.71305527      24.10347582       0.00010952       0.00023664      -0.00545924
Ti       2.93600409       5.70046634      24.13689915      -0.00010184       0.00001237      -0.00477247
Ti       2.93600588       2.85006159      24.38590625      -0.00005144      -0.00089249      -0.00728118
Ti       0.00003527       2.86471734      24.41708903       0.00006237       0.00014726      -0.00620036
Ti       4.41851691       0.76999888      25.70786733      -0.00001350       0.00028144      -0.00766993
Ti       1.45349886       0.76999440      25.70784608       0.00004304       0.00032607      -0.00779888
Ti       4.44985590       4.57430772      26.25239199       0.00050560       0.00134126      -0.00939048
Ti       1.42221151       4.57429692      26.25247174      -0.00055063       0.00139953      -0.00929962
V       -0.00002794       2.48956347      27.39382309      -0.00018741       0.00457577      -0.00066531
Ti       2.93600499       2.47476801      27.39149137       0.00007270       0.00142541      -0.00509671
Ti       2.93602399       6.47419702      27.87374193       0.00008287      -0.00266470      -0.00286196
Ti       0.00007620       6.55424584      27.91164839      -0.00002098      -0.00159846      -0.00296656
Ti       1.44550004       4.33982299      29.04407764      -0.00013054       0.00355166      -0.00521668
Ti       4.42651585       4.33984345      29.04405560       0.00009488       0.00334992      -0.00526190
Ti       1.44367689       1.49272320      29.58589902       0.00087998      -0.00414406      -0.00519964
Ti       4.42838753       1.49274047      29.58587768      -0.00094309      -0.00419184      -0.00510634
Ti      -0.00000385       6.23635170      30.75953163      -0.00047779       0.00061804      -0.00784997
Ti       2.93599512       6.24160994      30.74407352       0.00037619       0.00131425      -0.00722144
Ti       2.93597250       3.30680975      31.25135097       0.00034178       0.00629409       0.00668926
Ti       0.00003320       3.29825922      31.27362370      -0.00024359       0.00456428       0.00626984
Ti       4.39951017       1.20901166      32.53749956      -0.00011956       0.00537353       0.01675785
Ti       1.47248562       1.20903145      32.53752154       0.00008571       0.00556503       0.01682562
Ti       1.49092932       5.15928374      32.90925183      -0.00008823      -0.00773995       0.01169240
Ti       4.38103941       5.15916127      32.90934540       0.00017480      -0.00781418       0.01148319
Ti       2.93596944       3.02017691      34.09757112       0.00032093      -0.00088423       0.00609766
Ti       0.00002523       3.01583147      34.08737036      -0.00032796      -0.00098873       0.00615493
Ti       0.00007073       6.82372246      34.48042874      -0.00043467       0.00231126      -0.00065160
Ti       2.93596945       6.82609899      34.50154758       0.00040881       0.00294846       0.00026619
