100
Lattice="4.4265 -2.555641 0.0 3.767997 6.526363 -0.031456 0.0 0.0 61.781652" Properties=species:S:1:pos:R:3:forces:R:3 job_name=Segregation-1sol-addvac-CSL13-Al-Al-57-d-2.88 top_level=Segregation-1sol-addvac solute=Al energy=-761.62977615 stress_kbar_3x3="_JSON [[-26.19615735, -2.69734217, 0.5452737], [-2.69734213, -29.23713011, 1.09666107], [0.5452737, 1.09666107, -1.35466247]]" pbc="T T T"
Ti       5.69910885       1.46773340       8.80228557      -0.00351554      -0.00735074      -0.00207229
Ti       2.39555626      -0.97731209       8.81881346      -0.00453510      -0.00711507      -0.00262652
Ti       4.09187760       3.74222213       9.72450984       0.00444119      -0.00739617      -0.00065958
Ti       5.17010331      -1.23087733       9.73931754      -0.00871486       0.00101680      -0.00131429
Ti       6.83950060       3.44943806      10.37677978      -0.01159780       0.00149635       0.00092127
Ti       3.54233200       1.00164095      10.39176602       0.00727780      -0.00843441       0.00157984
Ti       1.50107959      -0.79602080      11.38063070       0.00364962      -0.00762381       0.00090653
Ti       6.30198031       0.78312625      11.36418856      -0.00853221      -0.00011726       0.00113798
Ti       4.74422834       3.00752658      12.27013483       0.00059198      -0.00573316       0.00821016
Ti       4.20720440      -1.03313626      12.28508396      -0.00491532      -0.00214475       0.00892746
Ti       7.44185773       2.75026458      13.10346893      -0.00078125      -0.00057126      -0.00134219
Ti       2.63579236       1.17520841      13.11895292      -0.00060040      -0.00087732      -0.00195798
Ti       5.45116275       0.92979569      14.20045845       0.00013504      -0.00396248      -0.00399453
Ti       5.82313722       5.06665547      14.18429224      -0.00371602      -0.00153168      -0.00365495
Ti       3.74211000       3.24169668      14.87674972      -0.00087215      -0.00144763      -0.01073153
Ti       0.48394601       0.77046709      14.89151588      -0.00036861      -0.00121303      -0.01142133
Ti       6.72923583       2.89167882      15.79827196       0.00113313      -0.00007131      -0.00944346
Ti       3.11406449       0.62868383      15.81385290      -0.00073140       0.00048734      -0.00897644
Ti       5.00867971       5.34475982      17.01804622      -0.00271709      -0.00177247      -0.00241863
Ti       6.10035250       0.36331111      17.03297544      -0.00089163      -0.00352697      -0.00239285
Ti       3.97707307      -1.48406596      17.48086355       0.00269419       0.00025266       0.00717911
Ti       4.46965081       2.58146535      17.46550308      -0.00127086       0.00310136       0.00613877
Ti       2.70991799       0.73277960      18.58348486      -0.00153528       0.00140516       0.00804738
Ti       7.02430275       2.59260973      18.56670646       0.00148384       0.00069418       0.00850247
Ti       5.28081100       0.76165029      19.87746109       0.00044227      -0.00044544       0.00371104
Ti       5.76437263       4.83487497      19.86216549      -0.00088117       0.00067873       0.00351038
Ti       0.32467875       0.53623781      20.09124146       0.00111445      -0.00295053      -0.00153783
Ti       3.61947315       2.98513194      20.07677340      -0.00344137      -0.00034407      -0.00208737
Ti       6.86404009       2.64071210      21.33490942       0.00065388      -0.00012818      -0.00266535
Ti       2.83153930       0.62025848      21.35285751      -0.00165894      -0.00113826      -0.00116981
Ti       1.64914507       2.83422065      22.70576477       0.00034807      -0.00010572      -0.00341414
Ti       4.94636760       5.28026186      22.69334521       0.00088876       0.00227226      -0.00238054
Ti       3.94185602      -1.57931243      22.74712843      -0.00101244       0.00015936      -0.00500310
Ti       4.40431025       2.50266530      22.73444782      -0.00051290      -0.00049502      -0.00429819
Ti       6.87735084       2.61501478      24.08245769      -0.00200118       0.00022847       0.00064547
Ti       2.79871857       0.61939589      24.10095047       0.00060235      -0.00207722      -0.00148307
Ti       0.30638228       0.51054072      25.40150231       0.00086574       0.00059438       0.00416198
Ti       3.59837584       2.95446748      25.40104682      -0.00074437       0.00030224       0.00577894
Ti       5.26204716       0.73892029      25.52984092       0.00106352       0.00034972       0.00485574
Ti       5.74006175       4.80698004      25.51594557       0.00057023      -0.00001840       0.00170459
Ti       6.95690497       2.55838168      26.84970837       0.00218403      -0.00192276      -0.00335725
Ti       2.71487943       0.66971617      26.87245602      -0.00144482       0.00305199       0.00003670
Ti       3.93566618      -1.57228958      28.00041440       0.00329243       0.00377503      -0.00720859
Ti       4.45098842       2.51234065      28.01759095       0.00102899       0.00378586      -0.01126970
Ti       6.06842680       0.30342489      28.34695710       0.00248590      -0.00020941      -0.00277824
Ti       4.96299678       5.26811481      28.36823232       0.00137931       0.00172754      -0.00077058
Ti       3.05705533       0.50491386      29.64299024       0.00269118       0.00312868      -0.00357054
Ti       6.74348842       2.74812953      29.67122662      -0.00014157       0.00815542       0.00142393
Ti       0.47341437       0.69119117      30.51727881       0.00363821       0.00789685       0.00462153
Ti       3.68435539       3.04516950      30.59778098       0.00283067       0.00736380       0.01009488
Ti       5.71391130       4.98155678      31.19019320       0.00199744       0.00180375       0.00417369
Ti       5.38969039       0.80292396      31.23362689       0.00566681       0.00491737       0.01291155
Ti       2.65142542       1.05889415      32.38311578       0.00723028       0.01159421       0.01389546
Ti       3.08293188       5.02188675      32.37145332      -0.00139283       0.00169958       0.00947400
Ti       4.86818426       2.92202289      33.10304820       0.00211602      -0.00456766       0.00460274
Ti       4.23644977      -1.33281749      33.11791558       0.00781473       0.00922866       0.00782831
Ti       6.21706061       0.65445772      34.03828283      -0.00071902       0.00297273       0.00245165
Al       5.29819477       5.54215144      34.03227125       0.00563768       0.00561857       0.00377986
Ti       3.58567459       0.70136203      34.99748397       0.01469915       0.00682395      -0.00359907
Ti       6.95691908       3.35621755      34.99191010       0.00140011       0.00148325      -0.00671811
Ti       4.08432411       3.54691369      35.71340065       0.00040550      -0.00236660      -0.01146533
Ti       0.87963853       1.19396160      35.73412058       0.00105653       0.01177205      -0.01391369
Ti       5.70301468       1.30928574      36.84241367       0.00045386      -0.00296328      -0.01079479
Ti       2.24766064      -1.06439392      36.88874903       0.00432779       0.00448858      -0.00291677
Ti       2.90280584       1.66264078      37.51958543       0.00076469      -0.00018795      -0.01472251
Ti       3.34833587       5.62034295      37.59839328      -0.00096577       0.00039085      -0.00924729
Ti       4.68129266      -0.80288195      38.42790084      -0.00120982      -0.00248179       0.00189070
Ti       4.83266762       3.48072578      38.44871481      -0.00251885      -0.00041269       0.00449159
Ti       1.65048752      -0.51043538      39.71450732      -0.00142796      -0.00270765       0.00828059
Ti       2.07391521       3.57837194      39.72957199      -0.00065097      -0.00534017       0.00892496
Ti       3.78298780       1.31605523      40.09510027      -0.00329713      -0.00407139       0.01472410
Ti       7.06078578       3.81166879      40.10954315      -0.00157045      -0.00447704       0.01248934
Ti       4.50964548       3.76514407      41.21175793      -0.00369619      -0.00777854       0.00969634
Ti       5.01707598      -0.86780320      41.23975459      -0.00383055      -0.00613602       0.01279293
Ti       5.73475433       1.53028086      42.56976722      -0.00380459      -0.00555012       0.00030607
Ti       2.46379455      -0.92686270      42.58794313      -0.00172017      -0.00488890       0.00230874
Ti       2.98875856       1.86797771      42.69552810      -0.00435768      -0.00447566      -0.00291148
Ti       3.47146628       5.93341898      42.69270920      -0.00270599      -0.00323008       0.00057372
Ti       4.61584476       3.73818491      43.99655474      -0.00239410      -0.00356808      -0.00351477
Ti       4.94205773      -0.80053021      44.01580663      -0.00445999      -0.00634709      -0.00573060
Ti       1.64775759      -0.44667903      45.43418654      -0.00301201      -0.00518771       0.00348235
Ti       2.14618376       3.61621907      45.42127905      -0.00261599      -0.00265277       0.00354258
Ti       3.81334136       1.40053830      45.32875576      -0.00444958      -0.00228148      -0.00149162
Ti       7.08943198       3.85890460      45.31723914      -0.00076892      -0.00315825      -0.00072293
Ti       4.67915638       3.69277723      46.77192895      -0.00049129       0.00080231       0.00229177
Ti       4.87674752      -0.76988901      46.79053956      -0.00221155      -0.00340382       0.00354621
Ti       2.99605411       1.82115528      47.94375431      -0.00035231      -0.00071665       0.00143181
Ti       3.43931930       5.91520688      47.93018636      -0.00010267       0.00028940      -0.00016441
Ti       2.43141867      -0.92500109      48.28702778      -0.00259580       0.00011551      -0.01014991
Ti       5.77162910       1.49913265      48.27252008       0.00169732      -0.00121314      -0.00944429
Ti       5.08125376      -1.03179404      49.54349137       0.00656115       0.00242720      -0.01530272
Ti       4.35643853       3.73834701      49.52726285      -0.00126213       0.00706802      -0.01846150
Ti       6.98217220       3.59170380      50.55832655       0.00477161       0.00111186      -0.00291031
Ti       3.64015646       1.16898356      50.57224910      -0.00533074       0.00437642       0.00361643
Ti       1.52695821      -0.63300774      51.26660271       0.00344654       0.00918890      -0.00176510
Ti       2.05159612       3.41696044      51.25009982       0.00269768      -0.00005524      -0.00198581
Ti       4.41318749      -0.94082463      52.16403406       0.00809967       0.00439913       0.00638736
Ti       4.76788765       3.20421224      52.14792897      -0.00224720       0.00464748       0.00608603
Ti       3.23582415       5.37389723      53.00806607       0.00115221       0.00730858       0.00516070
Ti       2.63188698       1.37312191      53.02300499       0.00381293       0.00449175       0.00069615
