64
Lattice="5.871999 0.0 0.0 0.0 6.890708 0.0 0.0 0.0 43.401158" Properties=species:S:1:pos:R:3:forces:R:3 job_name=Segregation-1sol-addvac-T1m-V-V-33-d-0.00 top_level=Segregation-1sol-addvac solute=V energy=-487.05182186 stress_kbar_3x3="_JSON [[-6.66938654, -0.00018112, 0.00042591], [-0.00018111, -18.37980321, -0.47125285], [0.0004259, -0.47125283, -3.05664178]]" pbc="T T T"
Ti       2.93599742       6.87138596       8.90640384       0.00014207      -0.00497103       0.01405332
Ti       2.93601946       3.05999518       9.30142120       0.00001490       0.00559550       0.00699456
Ti       0.00002198       6.87097146       8.90524880      -0.00009944      -0.00494732       0.01365352
Ti       0.00002657       3.05999293       9.30067552      -0.00001767       0.00533560       0.00649993
Ti       4.40505469       5.20761705      10.48133228      -0.00041727       0.00477379       0.01533891
Ti       1.46698881       5.20763425      10.48134538       0.00041143       0.00471241       0.01548189
Ti       4.40432803       1.25864676      10.86019087      -0.00020422       0.00279033       0.00987042
Ti       1.46772458       1.25865441      10.86020600       0.00020407       0.00274394       0.00988800
Ti       2.93598395       3.35909056      12.12916128      -0.00001064      -0.00084805       0.00191486
Ti       0.00005810       3.35870012      12.13014668       0.00003113      -0.00064719       0.00347139
Ti       2.93601033       6.29196565      12.65120684      -0.00004570       0.00189507       0.00490473
Ti       0.00003022       6.29140413      12.65151835       0.00005018       0.00138257       0.00429125
Ti       1.46930445       1.54869259      13.79134604      -0.00119749      -0.00457315      -0.00014397
Ti       4.40273080       1.54866889      13.79140013       0.00107510      -0.00445865      -0.00028884
Ti       1.46896419       4.40726951      14.36515103      -0.00048222       0.00177189      -0.00136515
Ti       4.40308035       4.40726413      14.36512885       0.00044663       0.00182420      -0.00127919
Ti       2.93600581       6.57692066      15.52179928       0.00001045       0.00222883       0.00431984
Ti       0.00001330       6.57472767      15.51980471       0.00005580       0.00215860       0.00313495
Ti       2.93603736       2.53216838      16.05970322      -0.00001183       0.00155408       0.00895406
Ti       0.00000800       2.53765626      16.05566769       0.00006234      -0.00029900       0.00904711
Ti       4.40044870       4.69578113      17.21308972       0.00005380       0.00001177       0.01283277
Ti       1.47161140       4.69576903      17.21303693      -0.00012753       0.00004514       0.01288171
Ti       4.40622987       0.70628515      17.77405723      -0.00164430      -0.00483698       0.01050651
Ti       1.46581096       0.70631029      17.77410034       0.00164700      -0.00482989       0.01029266
Ti       0.00004307       2.87760396      18.96389243      -0.00012008       0.00389609       0.00623429
Ti       2.93601304       2.85745443      18.99155107       0.00008176       0.00317898       0.00667930
Ti       0.00002446       5.70734338      19.44128771      -0.00021555       0.00254997       0.00318374
Ti       2.93603896       5.71034564      19.42052254       0.00010663       0.00073165       0.00152899
Ti       1.40801346       0.92866501      20.61468451      -0.00062493      -0.00804348      -0.00817063
Ti       4.46401026       0.92869813      20.61459991       0.00075095      -0.00844551      -0.00841463
Ti       1.44212729       4.01322974      21.15161749       0.00148172       0.00842490      -0.01718703
Ti       4.42988505       4.01331334      21.15163237      -0.00131783       0.00855943      -0.01761277
Ti       2.93602058       2.06443764      22.54847333      -0.00050634      -0.00709686       0.00095689
V        0.00003442       2.18178166      22.55054449       0.00035820      -0.00135487      -0.00369724
Ti       2.93602713       6.07497515      22.55035925      -0.00008381       0.00023230       0.00074435
Ti       0.00001544       6.15724936      22.55095185       0.00007617       0.00032142       0.00141076
Ti       4.42980662       4.01753249      23.94807063      -0.00144246       0.00919383       0.01034927
Ti       1.44224492       4.01748788      23.94805733       0.00135931       0.00906607       0.01001961
Ti       4.46255414       0.93723149      24.49172966      -0.00353710      -0.00826236      -0.00201962
Ti       1.40949298       0.93723858      24.49167557       0.00348680      -0.00790921      -0.00218600
Ti       2.93601888       5.72428954      25.67520898       0.00002537      -0.00046180      -0.00419184
Ti       0.00001801       5.71911326      25.65907520      -0.00006214      -0.00296967      -0.00464550
Ti       2.93597803       2.86824789      26.11076188      -0.00004172       0.00079914      -0.00091081
Ti       0.00004092       2.88779498      26.13816555       0.00007137       0.00185437      -0.00221373
Ti       4.40487736       0.72715300      27.32935146      -0.00020050      -0.00077335      -0.00379925
Ti       1.46709771       0.72717223      27.32930475       0.00036326      -0.00079901      -0.00352163
Ti       4.39931972       4.70029393      27.89613503       0.00260044       0.00367981      -0.00840545
Ti       1.47269215       4.70031868      27.89618960      -0.00258752       0.00354021      -0.00842338
Ti      -0.00002817       2.55978797      29.04504385       0.00010617      -0.00423615      -0.00822995
Ti       2.93602405       2.55582652      29.04108907      -0.00001246      -0.00708366      -0.00835674
Ti       0.00007481       6.60967397      29.58285032      -0.00015167      -0.00421140      -0.00458303
Ti       2.93598889       6.61232987      29.58315675       0.00000200      -0.00380208      -0.00447645
Ti       1.46792163       4.45987342      30.72974745       0.00021177       0.00671079      -0.01198954
Ti       4.40402132       4.45985749      30.72966982      -0.00010116       0.00668063      -0.01197239
Ti       1.46936668       1.50423578      31.27423657       0.00004454      -0.00711256      -0.00761554
Ti       4.40262275       1.50423356      31.27424121       0.00004153      -0.00696563      -0.00756340
Ti       2.93597505       6.30008687      32.53578717       0.00008949      -0.00150817      -0.00602271
Ti       0.00007509       6.29889698      32.53593569      -0.00022842      -0.00299870      -0.00586546
Ti       2.93611897       3.37226770      32.89641995       0.00001574       0.00069969      -0.00486221
Ti       5.87193344       3.37257857      32.89480184      -0.00016120       0.00006992      -0.00585529
Ti       4.40417401       1.21445861      34.08585078      -0.00012021       0.00525578      -0.00545969
Ti       1.46784535       1.21440448      34.08568047       0.00017280       0.00519590      -0.00529487
Ti       4.40356582       5.01797137      34.48772742       0.00035582      -0.00251595      -0.01142449
Ti       1.46840375       5.01800268      34.48765923      -0.00023332      -0.00250295      -0.01139119
