64
Lattice="5.871999 0.0 0.0 0.0 6.890708 0.0 0.0 0.0 43.401158" Properties=species:S:1:pos:R:3:forces:R:3 job_name=Segregation-1sol-addvac-T1m-Al-Al-40-d-3.20 top_level=Segregation-1sol-addvac solute=Al energy=-481.94685955 stress_kbar_3x3="_JSON [[-10.70276511, 0.00024078, -0.0002583], [0.00024076, -7.90973899, -1.5354985], [-0.00025833, -1.53549848, -0.23720752]]" pbc="T T T"
Ti      -0.00010774       2.86046250       9.06732955       0.00011231      -0.00555954      -0.00212701
Ti       2.93602681       1.33921790       8.76371487      -0.00001345       0.01958197       0.00290810
Ti      -0.00004846       0.36474176       8.45336457       0.00004007       0.00860387      -0.00117152
Ti       1.39193593       5.35490131       9.99115505       0.00637900       0.00718430      -0.00046283
Ti       4.48003293       5.35500418       9.99109623      -0.00639398       0.00687834      -0.00016208
Ti       4.48645943       1.15024259      10.72731673      -0.01226990       0.00408015      -0.00738832
Ti       1.38549232       1.15022415      10.72732442       0.01221539       0.00403038      -0.00756879
Ti       2.93598236       3.36181664      11.32287497       0.00009803      -0.00392581       0.00008887
Ti       5.87199743       3.52452698      11.65609663      -0.00002972       0.00382105      -0.00047787
Ti      -0.00002924       6.19199769      12.32258558       0.00007622      -0.00247096       0.00183622
Ti       2.93596937       6.03782679      12.18068435       0.00000710       0.01031758      -0.00748979
Ti       1.50098199       1.49893932      13.40634180       0.00342713       0.00713371      -0.00153855
Ti       4.37107733       1.49894850      13.40635145      -0.00351325       0.00708616      -0.00155783
Ti       1.50361713       4.30095458      13.92563840       0.00478219       0.00136156      -0.00028786
Ti       4.36836528       4.30095732      13.92563947      -0.00482387       0.00140036      -0.00029768
Ti       2.93600201       6.50033749      15.06038111       0.00008371      -0.00290915       0.00668562
Ti       0.00002970       6.50456531      15.14023653       0.00001080      -0.00462947       0.00269880
Ti       0.00000496       2.47294973      15.62420196       0.00002026      -0.00420853       0.00199582
Ti       2.93599587       2.44532279      15.66014021       0.00012229      -0.00149850       0.00412037
Ti       1.47798361       4.62855581      16.76745908      -0.00365687      -0.00056064      -0.00076904
Ti       4.39411864       4.62856156      16.76744678       0.00360491      -0.00062083      -0.00070306
Ti       4.39428163       0.66386505      17.35014206      -0.00058635      -0.00208448       0.00066195
Ti       1.47777978       0.66393690      17.35005503       0.00056984      -0.00227313       0.00079843
Ti       0.00005298       2.81626097      18.55655889      -0.00002466      -0.00217138       0.00224793
Ti       2.93607145       2.82119758      18.57215775      -0.00002414      -0.00150034       0.00152529
Ti       0.00001090       5.66464545      18.97035739       0.00005380      -0.00392743       0.00160091
Ti       2.93606272       5.66232388      18.99968093      -0.00002519      -0.00600680       0.00305260
Ti       1.47954523       0.85065633      20.13722156       0.00101544      -0.00208718       0.00110154
Ti       4.39257860       0.85068705      20.13732399      -0.00108912      -0.00218380       0.00087108
Ti       4.41786570       4.06512525      20.74415870       0.00024193      -0.00185449      -0.00246669
Ti       1.45425968       4.06515535      20.74414142      -0.00029043      -0.00190205      -0.00244689
Ti       0.00001645       6.14099084      22.10513293       0.00012183      -0.00175597      -0.00030024
Ti       0.00006035       2.09890313      22.12981721       0.00004147      -0.00525973      -0.00372625
Ti       2.93602908       2.10471523      22.15096224       0.00005043      -0.00421681      -0.00435988
Ti       2.93606651       6.14168362      22.17845164      -0.00007703      -0.00181464      -0.00299001
Ti       1.44099867       4.01896574      23.56482266       0.00036529      -0.00062208      -0.00148967
Ti       4.43110484       4.01893437      23.56479146      -0.00037872      -0.00055942      -0.00143851
Ti       4.37674030       0.87401890      24.12141587      -0.00115936      -0.00101220       0.00000750
Ti       1.49536458       0.87397694      24.12143137       0.00113332      -0.00092630      -0.00012892
Al       2.93607972       5.68612082      25.24816270      -0.00017926       0.00089097      -0.00608253
Ti       0.00003540       5.64004662      25.26981374      -0.00013600       0.00047776       0.00115111
Ti       2.93609019       2.89438353      25.73135456      -0.00006482       0.00026352       0.00090015
Ti      -0.00004332       2.77726074      25.71544111       0.00014735      -0.00084024      -0.00111947
Ti       4.37439123       0.64722223      26.91621824       0.00173334       0.00038685       0.00377529
Ti       1.49761742       0.64717177      26.91620558      -0.00169484       0.00060538       0.00388143
Ti       4.38364722       4.68166940      27.46402764       0.00168400       0.00071121       0.00471468
Ti       1.48838413       4.68160917      27.46393333      -0.00167882       0.00070339       0.00466661
Ti       2.93597832       2.55099074      28.60331303       0.00015766      -0.00111832      -0.00186478
Ti       0.00004762       2.51266756      28.57811881      -0.00016130      -0.00054771      -0.00034647
Ti      -0.00009246       6.54967971      29.18827418       0.00022255      -0.00060174      -0.00972261
Ti       2.93608063       6.58597428      29.16645914      -0.00016767      -0.00151661      -0.00839367
Ti       4.44115104       4.38573850      30.31095796      -0.00748880      -0.00713656      -0.00218545
Ti       1.43082106       4.38577059      30.31082612       0.00748330      -0.00711002      -0.00200688
Ti       1.41938013       1.54522646      30.83016152       0.00658868       0.00580161      -0.00382414
Ti       4.45259108       1.54531906      30.83011196      -0.00665257       0.00559813      -0.00378769
Ti       5.87195958       6.20502949      32.11760346      -0.00004022      -0.00357418       0.00042544
Ti       2.93596205       6.33972327      32.00167770       0.00018494      -0.00350345       0.00056262
Ti       5.87198775       3.37078489      32.70085331      -0.00007500      -0.00291291       0.00025531
Ti       2.93593364       3.41607103      32.50341430       0.00023889       0.00529112       0.00115981
Ti       1.52561966       1.23472454      33.61362955       0.00111151       0.01019468       0.00859761
Ti       4.34642336       1.23464839      33.61353947      -0.00118651       0.01034742       0.00865779
Ti       1.57701261       5.19339043      34.12019939       0.01082823      -0.01404017       0.00915422
Ti       4.29494958       5.19333893      34.12036238      -0.01091873      -0.01395021       0.00836372
Ti       2.93616885       3.03392609      35.11626377      -0.00015260       0.00264230       0.00221613
