64
Lattice="5.872 0.0 0.0 0.0 6.890708 0.0 0.0 0.0 43.394398" Properties=species:S:1:pos:R:3:forces:R:3 job_name=Segregation-1sol-addvac-T1g-Al-Al-37-d-1.90 top_level=Segregation-1sol-addvac solute=Al energy=-481.80223798 stress_kbar_3x3="_JSON [[-8.31375544, -0.02204846, 0.04969834], [-0.02204845, -11.67828729, -1.55596801], [0.04969833, -1.55596804, -1.26511456]]" pbc="T T T"
Ti       4.41663934       5.01183804       8.61437661      -0.00234803       0.00147086       0.00755375
Ti       1.45206343       5.01711438       8.59760113      -0.00092992       0.00419873      -0.00452321
Ti       0.01832694       2.97025845       9.54506421       0.00716953       0.01023006       0.00677377
Ti       2.91277900       2.97183818       9.46940105      -0.01286986       0.00771035      -0.00565051
Ti       2.93567677       6.69544120      10.12906955      -0.00202681      -0.00551132      -0.00233839
Ti       0.00028872       6.69221200      10.13612834       0.00155524      -0.00302913      -0.00315218
Ti       4.34241140       1.81906415      11.49103124      -0.00559381       0.00883298      -0.00725374
Ti       1.53101057       1.80844786      11.49932885       0.00730793       0.00211415      -0.00025024
Ti       1.47326389       4.70537578      11.54340362       0.00169710      -0.00072083      -0.00650641
Ti       4.39982060       4.70921026      11.55384761      -0.00033934      -0.00013776      -0.00087155
Ti       2.93933945       6.73124153      12.94203718       0.00152737       0.00503111      -0.00063333
Ti       5.87000553       6.73751439      12.93595688      -0.00007312       0.00470552       0.00226746
Ti       0.00085777       2.95128205      13.48092235       0.00045819      -0.00166537       0.00215927
Ti       2.93662573       2.96077432      13.53600879       0.00030634      -0.00069997       0.00837192
Ti       1.45575519       5.08489499      14.66870520      -0.00151805      -0.00100519       0.00454232
Ti       4.41698966       5.08551713      14.66986335       0.00242877      -0.00010690       0.00640921
Ti       1.46679344       1.02393530      15.13126229       0.00108951       0.00066433       0.00546181
Ti       4.40587284       1.02448445      15.13422847       0.00002429       0.00067224       0.00721306
Ti       2.93564719       3.18325960      16.32659884      -0.00065891       0.00124579       0.00094202
Ti       0.00051976       3.18736759      16.29678163       0.00076003       0.00302296      -0.00143962
Ti       2.93629504       6.09859325      16.88113727       0.00030656       0.00224487      -0.00541946
Ti       0.00017494       6.09235740      16.89995516       0.00040216       0.00063218      -0.00476280
Ti       4.40550395       1.38472339      18.06039179       0.00022586       0.00273025      -0.00266162
Ti       1.46656854       1.38501156      18.05965476      -0.00030986       0.00312091      -0.00371768
Ti       4.41073022       4.18754373      18.56947538       0.00098181       0.00200381      -0.00145541
Ti       1.46133245       4.18718984      18.56939532      -0.00061972       0.00140158      -0.00112095
Ti       2.93576209       6.36768946      19.66151693      -0.00022622       0.00598059       0.00507181
Ti       0.00013860       6.35010221      19.69781557       0.00033444       0.00639122       0.00218461
Ti       0.00015359       2.42046950      20.30294961       0.00028484       0.00117444       0.00285484
Ti       2.93599000       2.42927735      20.30513007      -0.00014619       0.00253436       0.00176480
Ti       1.46935947       4.56557533      21.53997620      -0.00034751       0.00093411      -0.00806438
Ti       4.40278953       4.56561400      21.54009192       0.00026585       0.00079646      -0.00773761
Ti       1.49405502       0.47192275      21.87143600      -0.00073202       0.00813316       0.00301703
Ti       4.37804687       0.47200768      21.87141310       0.00076652       0.00831959       0.00279846
Ti       0.00006725       2.51574016      23.08507030       0.00004122       0.01297751       0.00094035
Ti       2.93610379       2.56850368      23.09355399       0.00003114       0.01762215      -0.00349800
Al       2.93604276       5.83844167      23.68738304       0.00009285      -0.01833855       0.00166084
Ti       0.00003670       5.83381769      23.74747156       0.00016572      -0.01776566       0.00467667
Ti       4.43777211       3.87732549      25.03370136       0.00272554       0.00181979       0.01045414
Ti       1.43441388       3.87730569      25.03374826      -0.00277122       0.00226655       0.01026928
Ti       4.41024815       0.97552713      25.14519350      -0.00033482      -0.00122575      -0.00422351
Ti       1.46184237       0.97553233      25.14521627       0.00037069      -0.00151379      -0.00436810
Ti       2.93610278       5.77645892      26.49778059      -0.00014082      -0.00180851      -0.00085323
Ti       0.00008984       5.78541557      26.58847188       0.00003642      -0.00311195      -0.00279475
Ti       2.93604011       2.76223896      27.04204548       0.00028391      -0.00476235       0.00493208
Ti       0.00008896       2.69917910      27.08667281      -0.00024969      -0.00356649      -0.00049163
Ti       1.50042167       0.61827572      28.23565197       0.00150742      -0.00599544       0.00667005
Ti       4.37175558       0.61839055      28.23574124      -0.00152072      -0.00536371       0.00656201
Ti       1.48480365       4.66404664      28.71644902       0.00022032      -0.00298278      -0.00037798
Ti       4.38735153       4.66407556      28.71661726      -0.00018757      -0.00362989      -0.00037144
Ti       2.93609367       2.50347451      29.89009776       0.00029818      -0.00604312       0.00608734
Ti       0.00003030       2.50949281      29.91322384      -0.00014949      -0.00636449       0.01024313
Ti       0.00008870       6.49394903      30.43291928       0.00019282       0.00006355      -0.00237295
Ti       2.93610346       6.50623061      30.46187385      -0.00007970       0.00054988      -0.00327404
Ti       4.40326500       4.34022020      31.64379682       0.00076594      -0.01064515      -0.00654464
Ti       1.46855052       4.34033386      31.64374211      -0.00030423      -0.01078844      -0.00643964
Ti       1.47177012       1.47510019      32.10769264      -0.00137577      -0.00072363      -0.01112721
Ti       4.40071307       1.47513851      32.10752846       0.00140655      -0.00066788      -0.01187360
Ti       5.87187615       6.26586953      33.22849474       0.00049476       0.00475468      -0.00113603
Ti       2.93598142       6.26978099      33.24889116      -0.00048129       0.00337366      -0.00091989
Ti       0.00007601       3.31535815      33.82840189       0.00056000      -0.00575334      -0.00057532
Ti       2.93591078       3.31391205      33.83615868      -0.00059798      -0.00505914      -0.00044856
Ti       1.46568931       1.19378865      34.82782610      -0.00150492      -0.00531854      -0.00213508
Ti       4.40572289       1.19376950      34.82732045       0.00135177      -0.00541933      -0.00049732
