52
Lattice="5.088765 0.0 0.0 0.0 5.495746 0.0 0.0 0.0 48.722931" Properties=species:S:1:pos:R:3:forces:R:3 job_name=Segregation-1sol-addvac-C1-Al-Al-29-d-2.59 top_level=Segregation-1sol-addvac solute=Al energy=-392.46585005 stress_kbar_3x3="_JSON [[-12.35377145, -0.11853564, 2.48885631], [-0.11853564, -14.95523442, -0.53891518], [2.48885629, -0.5389152, -0.44246205]]" pbc="T T T"
Ti       2.08146525       0.61277796       8.92170356      -0.00814912      -0.00624922       0.00107068
Ti       4.70054244       1.56899524       9.81502222      -0.00252515      -0.01521762      -0.00577976
Ti       0.23049370       4.30961229       9.40798080      -0.00594220       0.00663454      -0.00120711
Ti       2.23876126       2.57760349      10.51420490       0.00007968       0.00458213       0.00390533
Ti       3.41757664       4.97565313      11.04667817       0.00317619      -0.00623098       0.00122140
Ti       0.92531102       0.31382287      11.68006823      -0.00581197       0.00717499       0.01254074
Ti       0.14179676       3.07996932      12.09459969      -0.00831567       0.00077309       0.00743340
Ti       3.22462820       1.33644318      13.09242210      -0.00505103       0.00102321      -0.00114660
Ti       2.48393032       4.09521434      13.41077200      -0.00086769      -0.00034282       0.01202147
Ti       5.03792659       4.87249505      14.30544690      -0.00159091       0.00792604      -0.00938998
Ti       0.94670352       2.01989942      14.56533603      -0.00102699      -0.00485946      -0.00775805
Ti       3.51254334       2.78514682      15.63757028      -0.00099712       0.00591332      -0.01320297
Ti       2.71275266       0.06361086      15.73685953      -0.00175077      -0.00524458      -0.01234258
Ti       0.85650951       3.67359593      16.84474486      -0.00380996       0.00672605       0.00309092
Ti       0.06808621       0.91329422      16.98980890      -0.00129013      -0.00303609       0.00093901
Ti       2.59700451       1.70922096      18.11046063      -0.00136000       0.00030213      -0.00059669
Ti       3.45730785       4.41682865      18.20392450      -0.00297739      -0.00079833      -0.00649874
Ti       0.93941423       5.19474395      19.36811110      -0.00018184       0.00203599      -0.00960600
Ti       0.12558891       2.45522750      19.38346352      -0.00152226      -0.00129695      -0.00804950
Ti       3.41294338       0.51961434      20.57564951       0.00096762       0.00201191      -0.00191412
Ti       2.63812399       3.26561852      20.65232139      -0.00206982       0.00172838      -0.00022331
Ti       0.07492106       4.05742430      21.82950719      -0.00038646       0.00276515       0.01282116
Ti       0.85735282       1.27978260      21.87078115       0.00066518       0.00095323       0.01146701
Ti       2.61321812       4.86717489      23.04970513       0.00083229       0.00268647       0.01382253
Ti       3.48178777       2.09922022      23.03959621      -0.00090905      -0.00109424       0.01454465
Ti       0.84293176       2.74417095      24.33832827      -0.00167302       0.00410627       0.00506422
Ti       0.09401242       0.03952246      24.42034718      -0.00234314      -0.00065658       0.00241733
Ti       3.30190585       1.80512816      25.70631055      -0.00016578       0.00294069      -0.00812038
Ti       2.57168782       4.57310538      25.72046254      -0.00116631      -0.00145107      -0.01102878
Al       0.01638091       3.85544993      26.85129759       0.00381114      -0.00120863      -0.00683378
Ti       0.87800073       1.10922099      26.96242800       0.00049501       0.00036662      -0.01339442
Ti       3.39365433       0.33788667      28.06985167      -0.00169184       0.00039795      -0.00096514
Ti       2.56745611       3.14450720      28.12445617      -0.00250104       0.00091670       0.00104007
Ti       0.71085929       5.03494361      29.34267931       0.00072028      -0.00296724       0.00659488
Ti       4.99863393       2.29077829      29.33348070       0.00092932       0.00072290       0.00528140
Ti       2.46277276       1.51254523      30.47946363       0.00069040      -0.00059910       0.00558508
Ti       3.34018279       4.29021582      30.65587124       0.00289386       0.00115050       0.00277569
Ti       5.08029073       0.78754429      31.85556999       0.00288367       0.00571836      -0.00164725
Ti       0.78103680       3.50961507      31.73238820       0.00123325      -0.00258539      -0.00189771
Ti       3.20215886       2.65175144      32.97862093      -0.00105042      -0.00608379       0.00830551
Ti       2.39950590       5.39347452      33.08566542       0.00028734       0.00085905       0.01063842
Ti       0.87339346       1.99027287      34.41928797       0.00712485       0.00977834       0.00603357
Ti       4.95504533       4.63600284      34.14017515       0.00048347      -0.00899721       0.00301949
Ti       2.68132195       3.94707176      35.61029013       0.01029306      -0.00111986      -0.00042658
Ti       3.42767114       1.20895178      35.31209697       0.00120951       0.00301898      -0.00693330
Ti       0.68297111       0.19690904      36.62300596       0.00435845      -0.00666522      -0.00844637
Ti       4.97477855       2.93425840      37.03369634       0.00637276       0.01195451      -0.01279278
Ti       2.47929148       2.11311815      37.66850140       0.00984469      -0.00724759      -0.00427297
Ti       3.65791503       5.20376593      38.19370875      -0.00550640      -0.01532046      -0.00292413
Ti       1.19783493       4.19279806      38.90053112       0.00278945      -0.01188783       0.00316799
Ti       0.57613577       1.43771957      39.30191767       0.00310060       0.01105298       0.00182883
Ti       3.81624947       3.24517537      39.78908337       0.00739142       0.00493975       0.00076822
