64
Lattice="5.872 0.0 0.0 0.0 6.890708 0.0 0.0 0.0 43.394398" Properties=species:S:1:pos:R:3:forces:R:3 job_name=Segregation-1sol-addvac-T1g-V-V-47-d-6.48 top_level=Segregation-1sol-addvac solute=V energy=-485.92758534 stress_kbar_3x3="_JSON [[-7.59794596, -0.0001282, -0.00023334], [-0.0001282, -9.00386122, -3.64553174], [-0.00023332, -3.64553176, -0.91478991]]" pbc="T T T"
Ti       4.40398965       5.10428519       8.62126681      -0.00004727       0.00983098      -0.01030204
Ti       1.46822794       5.10579824       8.61566173      -0.00024482       0.01085079      -0.01533038
Ti       0.00732894       3.06743567       9.52250509       0.00518538       0.00079399       0.01547712
Ti       2.92873948       3.06738705       9.52310016      -0.00508370       0.00068187       0.01543665
Ti       0.00026062       6.78352093      10.14047500       0.00106422       0.01384068       0.00999660
Ti       2.93574419       6.78352003      10.14055449      -0.00092577       0.01379080       0.01011762
Ti       4.40452028       1.90714252      11.50929575       0.00013535       0.00907193       0.00403191
Ti       1.46751030       1.90353078      11.51170721      -0.00036882       0.00587809       0.00603296
Ti       1.46791065       4.80530252      11.56017379      -0.00009677       0.00401743      -0.00343585
Ti       4.40396078       4.80672591      11.56320279       0.00003760       0.00414215      -0.00076557
Ti       5.87141940       6.83552585      12.95599088      -0.00046775       0.00997032      -0.00253437
Ti       2.93652626       6.83559210      12.95600769       0.00047165       0.00999310      -0.00274781
Ti       2.93537847       3.07617180      13.51890288      -0.00031636       0.00824244      -0.00485973
Ti       0.00063019       3.07630702      13.51924355       0.00030410       0.00802137      -0.00467190
Ti       4.40392507       5.20192845      14.68814138      -0.00001590       0.01605975       0.00808864
Ti       1.46809568       5.20207415      14.68775900       0.00002079       0.01589848       0.00803504
Ti       4.40398233       1.15963322      15.14670856       0.00001618       0.00368318      -0.00227107
Ti       1.46800689       1.15927125      15.14657841      -0.00006484       0.00365606      -0.00282300
Ti       2.93574906       3.32947945      16.33387069      -0.00039485       0.00708814       0.00634989
Ti       0.00025180       3.32943235      16.33406803       0.00026717       0.00716959       0.00639796
Ti       2.93624034       6.25757494      16.90273956      -0.00021318       0.00533734       0.00371179
Ti       5.87176833       6.25761351      16.90273444       0.00022465       0.00535116       0.00371058
Ti       4.40397901       1.55254116      18.06986996       0.00001587       0.00367619      -0.00007707
Ti       1.46803580       1.55161568      18.07170478       0.00006771       0.00392102       0.00008861
Ti       4.40397510       4.39283374      18.57594263       0.00003946       0.00258498      -0.00219351
Ti       1.46802203       4.39200488      18.57409025      -0.00008193       0.00246400      -0.00207757
Ti       2.93737500       6.58452333      19.74082378      -0.00028827      -0.00379460      -0.00359412
Ti       5.87062334       6.58453275      19.74084249       0.00032870      -0.00382502      -0.00365532
Ti       2.93721234       2.59145763      20.30941409      -0.00016249       0.00213153       0.00123035
Ti       5.87079663       2.59145853      20.30937731       0.00016421       0.00220119       0.00126745
Ti       1.46798554       4.78272194      21.47095375       0.00002180      -0.00453373       0.00388633
Ti       4.40399500       4.78458180      21.47528307       0.00001876      -0.00445016       0.00408315
Ti       4.40402325       0.73760695      21.98561921      -0.00007482      -0.00420207       0.00583942
Ti       1.46800409       0.73985174      21.97947988       0.00002494      -0.00402714       0.00478799
Ti       5.87007270       2.91698831      23.14626698      -0.00087326      -0.00693649       0.00395324
Ti       2.93793819       2.91698398      23.14628227       0.00088035      -0.00690597       0.00398379
Ti       0.00260298       5.84322736      23.70893591      -0.00099320      -0.00569130       0.00125936
Ti       2.93339805       5.84327249      23.70896423       0.00102178      -0.00580458       0.00115746
Ti       4.40400005       3.97534924      25.34023057      -0.00000645      -0.00808269      -0.00995159
Ti       1.46798904       3.97230339      25.36134021       0.00013328      -0.00560380      -0.00950132
Ti       4.40402139       1.11452558      24.92944628      -0.00007081      -0.00545176      -0.00135973
Ti       1.46799929       1.12896553      24.90177086       0.00007070      -0.00523523      -0.00069153
Ti       0.05648524       6.09376968      26.55117642      -0.00093416      -0.00355180      -0.00398916
Ti       2.87952624       6.09377657      26.55116507       0.00095665      -0.00361315      -0.00401869
Ti       2.91558335       2.28224725      27.08442751       0.00203938      -0.00669508      -0.00552209
Ti       0.02043507       2.28221525      27.08439072      -0.00205887      -0.00662555      -0.00526030
Ti       4.40398239       0.35842427      28.50833421      -0.00002735      -0.00673529      -0.00520466
V        1.46803428       0.47599113      28.50454836       0.00003713      -0.00204771      -0.00671376
Ti       1.46800611       4.44633238      28.43859886       0.00003315      -0.00570664       0.00627889
Ti       4.40402147       4.37277290      28.44027986      -0.00005600      -0.00712524       0.00610491
Ti       2.90806858       2.33223214      29.87404220       0.00528321       0.00651240       0.00359904
Ti       0.02795018       2.33222529      29.87399202      -0.00521546       0.00649480       0.00360001
Ti       2.85923075       6.05506903      30.38722075       0.00076868      -0.01933717       0.00121422
Ti       0.07676614       6.05507632      30.38717330      -0.00078312      -0.01929137       0.00114262
Ti       4.40406087       3.98257085      31.64714917      -0.00007447      -0.00424426      -0.00694547
Ti       1.46798258       3.96184436      31.64105863       0.00012771      -0.00016309      -0.00657863
Ti       4.40397707       1.04371586      31.93011433      -0.00007433       0.00043463      -0.00112315
Ti       1.46795074       1.08149653      31.95681933       0.00005054      -0.00620594      -0.00289376
Ti       2.93358729       5.92974763      33.19856502       0.00388947      -0.01267270      -0.00961073
Ti       0.00246942       5.92971445      33.19845422      -0.00384727      -0.01256885      -0.00924225
Ti       5.81813670       2.89362011      33.76488333      -0.00479496      -0.00119994      -0.01320083
Ti       2.98998397       2.89363007      33.76489530       0.00484824      -0.00116861      -0.01333024
Ti       1.46817848       0.81956148      34.73046637      -0.00011137      -0.00575119       0.01698695
Ti       4.40400179       0.82721692      34.75552444       0.00021984      -0.00454226       0.00862669
