64
Lattice="5.872 0.0 0.0 0.0 6.890708 0.0 0.0 0.0 43.394398" Properties=species:S:1:pos:R:3:forces:R:3 job_name=Segregation-1sol-addvac-T1g-Al-Al-49-d-6.96 top_level=Segregation-1sol-addvac solute=Al energy=-482.90332414 stress_kbar_3x3="_JSON [[-5.50210815, 0.00028353, 0.00083871], [0.00028354, -15.28433416, 0.93697296], [0.00083871, 0.93697297, -1.38749737]]" pbc="T T T"
Ti       0.00017681       3.38457420       8.89918102      -0.00020238      -0.00036894       0.00995597
Ti       2.93590850       3.38452340       8.89971009      -0.00001686       0.00006030       0.00834454
Ti      -0.00002582       6.48122130       9.29931769      -0.00007201      -0.00876459      -0.00329650
Ti       2.93602356       6.48105474       9.29969438       0.00003834      -0.00815835      -0.00375469
Ti       4.40428017       1.73866143      10.49098553      -0.00045469       0.01076287      -0.00457268
Ti       1.46777639       1.73900960      10.49115934       0.00035067       0.01045935      -0.00394676
Ti       4.40399663       4.67052860      10.84257411       0.00021818      -0.01231110      -0.00318184
Ti       1.46795311       4.67067369      10.84311436      -0.00012766      -0.01196064      -0.00355170
Ti       5.87178212       6.76091111      12.11042542       0.00016282      -0.00012704       0.00241954
Ti       2.93620897       6.76063015      12.11046472      -0.00002935       0.00146869       0.00327525
Ti       2.93546802       2.82706141      12.65437957       0.00045607       0.00280343      -0.00316455
Ti       0.00047676       2.82676242      12.65418910      -0.00024045       0.00393268      -0.00204290
Ti       4.40407974       4.97619743      13.80040796      -0.00057610      -0.00281636       0.00348962
Ti       1.46794172       4.97698115      13.80081798       0.00038567      -0.00371134       0.00385681
Ti       1.46803293       0.91894145      14.33872826       0.00004198       0.00259604       0.01220239
Ti       4.40394844       0.91803344      14.33728553      -0.00004756       0.00345309       0.01316243
Ti       2.93708687       3.06639543      15.48050892       0.00046472      -0.00742295       0.00100330
Ti       5.87093838       3.06676360      15.48056470      -0.00036916      -0.00867767       0.00141709
Ti       0.00038741       5.97976985      16.05515398       0.00010225      -0.00414567       0.00470395
Ti       2.93558774       5.97985901      16.05509082      -0.00005422      -0.00423671       0.00427116
Ti       4.40402866       1.24429134      17.24269809      -0.00015121      -0.00384595       0.00335597
Ti       1.46789805       1.24511060      17.24554941       0.00033028      -0.00462347       0.00355480
Ti       1.46804179       4.07720644      17.72035057      -0.00048047      -0.00489408       0.00270167
Ti       4.40404452       4.07873575      17.71816251       0.00040040      -0.00497584       0.00464779
Ti       2.92661397       6.18504566      18.86212019       0.00063115       0.00233509       0.00541010
Ti       0.00944264       6.18507904      18.86210658      -0.00060583       0.00195139       0.00510282
Ti       2.94561906       2.37333015      19.45431094      -0.00036885      -0.00380861       0.00540065
Ti       5.86242190       2.37336014      19.45427311       0.00037772      -0.00371760       0.00512111
Ti       1.46796029       4.48059781      20.80528882       0.00023200      -0.00145841       0.00058890
Ti       4.40403168       4.47555609      20.81026280      -0.00014017      -0.00166130       0.00126132
Ti       1.46810738       0.44055579      20.93676378       0.00014771       0.00036561      -0.00201273
Ti       4.40404703       0.42120588      20.94267281      -0.00032744       0.00526094      -0.00381662
Ti       5.84660017       2.42083343      22.25558432       0.00461784      -0.00797683      -0.00370203
Ti       2.96149934       2.42090635      22.25564728      -0.00455779      -0.00844453      -0.00433516
Ti       0.04368173       5.97682318      22.87518885      -0.00366212       0.00520910      -0.00340091
Ti       2.89239049       5.97678516      22.87525999       0.00371458       0.00532860      -0.00397508
Ti       4.40413352       3.93506171      24.04522767      -0.00010710      -0.00165444      -0.00344605
Ti       1.46795676       3.92392654      24.09388993      -0.00002285       0.00238463      -0.00604925
Ti       1.46798782       1.08873071      24.38203334      -0.00011037      -0.00059248      -0.00265421
Ti       4.40406990       1.07360130      24.41270997      -0.00005654       0.00084816      -0.00390027
Ti       2.92607716       5.86797340      25.68055233      -0.00145614       0.00305407      -0.00417575
Ti       0.00996320       5.86779383      25.68051109       0.00133888       0.00378531      -0.00475878
Ti       2.97732182       2.88111924      26.23800614       0.00023491       0.00155663      -0.00116403
Ti       5.83065917       2.88123864      26.23790568      -0.00006656       0.00099489      -0.00112582
Ti       1.46801145       0.78841854      27.36340777       0.00013956       0.00478008      -0.00377256
Ti       4.40410922       0.69124189      27.35664399      -0.00039027       0.00205869      -0.00145487
Al       4.40383059       4.77381710      27.86732030      -0.00009728       0.00372742      -0.00709959
Ti       1.46799556       4.79585665      27.91386352       0.00032845       0.00340480      -0.00732712
Ti       5.85024499       2.61991537      29.04430062      -0.00045705       0.00166358      -0.00681411
Ti       2.95778236       2.61985236      29.04420996       0.00046670       0.00213399      -0.00666976
Ti       0.00608061       6.57934311      29.58217752       0.00190242       0.00251783      -0.00470192
Ti       2.92991094       6.57920935      29.58235286      -0.00165729       0.00285163      -0.00607303
Ti       4.40411819       4.44398429      30.72681408      -0.00028634       0.00305187       0.00632421
Ti       1.46796543       4.45221137      30.80673004       0.00016355       0.00461401       0.01068061
Ti       4.40402303       1.52126729      31.20815700       0.00005748      -0.00375379       0.00387775
Ti       1.46805394       1.49103633      31.22410305      -0.00025944       0.00384855      -0.00125430
Ti       2.95137219       6.31651274      32.51420587       0.00064601       0.01161738       0.00692534
Ti       5.85656023       6.31629031      32.51453761      -0.00067275       0.01230876       0.00582769
Ti       5.84559702       3.33455379      32.89398610      -0.00082367      -0.00004578       0.00626755
Ti       2.96248790       3.33452234      32.89389057       0.00060681      -0.00026364       0.00641547
Ti       4.40379865       1.21812115      34.08631819       0.00054426      -0.00178064      -0.00292863
Ti       1.46808571       1.19761434      34.06843112      -0.00039939      -0.00324965       0.00341884
Ti       1.46811949       5.00577585      34.43266806      -0.00016145       0.00253251      -0.01471974
Ti       4.40387197       5.01287672      34.46587485       0.00040738      -0.00027360      -0.01614073
