52
Lattice="4.6568 0.0 0.0 0.0 7.770572 0.0 0.0 0.0 41.044546" Properties=species:S:1:pos:R:3:forces:R:3 job_name=Segregation-1sol-addvac-CSL7-V-V-27-d-1.36 top_level=Segregation-1sol-addvac solute=V energy=-394.40795943 stress_kbar_3x3="_JSON [[-14.63536116, -1.00618513, -0.36084808], [-1.00618515, -15.81643116, -0.18020332], [-0.36084806, -0.18020333, -1.41419199]]" pbc="T T T"
Ti       2.31492006       7.24698517       8.72812969       0.00103820       0.01050915      -0.00093015
Ti       4.65090834       5.35676698       8.96750484       0.00197719      -0.00389856       0.00838899
Ti       2.31839846       2.25261543       9.49193505       0.00070823       0.00011126       0.01404064
Ti       4.64909796       0.54256229       9.83005203       0.00154560       0.00566306       0.01077526
Ti       2.32168148       4.97123706      10.45491600       0.00184530      -0.00568415       0.01056970
Ti       4.64897566       3.37938370      10.77396168       0.00164931      -0.00174463       0.00118714
Ti       2.32550331       0.10207428      11.38283968       0.00128318       0.00002422       0.00575105
Ti       4.65540064       6.13496891      11.61744823       0.00081644      -0.00034435       0.00819369
Ti       2.32262314       2.78337391      12.31003860       0.00153367      -0.00604816       0.00057073
Ti       4.65474579       1.11553044      12.66802855       0.00081331       0.00400449       0.00265968
Ti       2.32260801       5.58340630      13.21398393       0.00121653      -0.00229240       0.00732520
Ti       4.65267045       3.91885056      13.60933901       0.00110120       0.00112132      -0.00344447
Ti       2.32722953       0.58231036      14.25924474       0.00073623       0.00193284      -0.00045645
Ti       0.00921078       6.67030454      14.49420628       0.00091931       0.00057000      -0.00090381
Ti       2.32226322       3.34153256      15.19260560       0.00029434       0.00192897       0.00340880
Ti       0.01032469       1.70094698      15.53996802       0.00060576      -0.00200792      -0.00222253
Ti       2.34212488       6.10321097      16.03849602       0.00080457       0.00458260      -0.00551722
Ti       4.60722935       4.45427249      16.50981757       0.00293828      -0.00253383       0.00293757
Ti       2.36015363       1.12803630      17.13098746      -0.00069371       0.00318335       0.00296700
Ti       0.03157382       7.22742823      17.27419932       0.00208511      -0.00084644       0.00216292
Ti       2.20803120       3.84174701      18.08994007      -0.00472163      -0.00851571       0.00355221
Ti       0.07718866       2.19893838      18.47672592       0.00180167       0.00541107       0.00410006
Ti       2.32565104       6.64271021      18.77003518       0.00047175       0.00704767       0.00078668
Ti       4.16491894       4.87226190      19.38585411       0.00631344       0.00100503       0.00634498
Ti       2.64671671       1.64377637      20.07469668       0.00302480      -0.00465973      -0.00055789
Ti       0.27298562       7.68373558      20.10779956      -0.00668753       0.00082076       0.00596470
Ti       1.29161576       4.95027186      20.77871291      -0.01666001       0.00280992      -0.01017343
V        3.18926038       6.49706609      21.44165024       0.00909622       0.00618148      -0.00294783
Ti       0.62036494       2.29092621      21.61777904      -0.00320285       0.00198538      -0.00605867
Ti       3.20364931       3.84785209      22.05445149       0.00974662      -0.00891130      -0.00284582
Ti       0.69677284       7.23785950      22.79249355      -0.00231033      -0.00082050      -0.01072922
Ti       2.99502431       1.08265750      22.88491566      -0.00130933      -0.00179310      -0.01013541
Ti       0.76815258       4.48336151      23.61890329      -0.00562432      -0.00177182      -0.00253791
Ti       3.03615191       6.11971803      24.04085807      -0.00076048       0.00248062      -0.00079421
Ti       0.69903594       1.69885882      24.53566586      -0.00114147      -0.00198797      -0.00217179
Ti       3.06754240       3.33271671      24.89261814      -0.00000250       0.00351536      -0.00278008
Ti       0.71653372       6.68358618      25.60381326      -0.00082067      -0.00274023       0.00297872
Ti       3.05140445       0.58039373      25.82704124      -0.00087488      -0.00012261       0.00291861
Ti       0.73336503       3.90720143      26.47290463      -0.00096875      -0.00070042       0.00407689
Ti       3.05599867       5.55470557      26.84296319      -0.00075173       0.00407309       0.00269006
Ti       0.72383933       1.15133191      27.43758666      -0.00098037      -0.00152536       0.00775941
Ti       3.05370786       2.80896244      27.77075962      -0.00064962      -0.00226374      -0.00127469
Ti       0.72445494       6.09156832      28.42172707      -0.00023856       0.00412657      -0.00216939
Ti       3.05278987       0.00494556      28.70925985      -0.00135668      -0.00108991      -0.00041923
Ti       0.72489543       3.36752083      29.36878738      -0.00089087      -0.00528630      -0.00967134
Ti       3.05438551       5.07899159      29.69247696      -0.00055188      -0.00053965      -0.00716215
Ti       0.72680895       0.61155482      30.26300930      -0.00024541      -0.00201696      -0.00784465
Ti       3.05521587       2.20967741      30.54859767      -0.00100701      -0.00671911      -0.01157352
Ti       0.72684305       5.52171671      31.23085284      -0.00022384       0.00611699      -0.01159280
Ti       3.05415962       7.24830640      31.53168615      -0.00047559       0.00339083      -0.01033333
Ti       3.05682562       4.48369443      32.34531550      -0.00026474       0.00172683       0.00384176
Ti       0.72615726       2.60625339      32.04073576      -0.00095146      -0.00745796       0.00129556
