100
Lattice="4.4265 -2.555641 0.0 3.767997 6.526363 -0.031456 0.0 0.0 61.781652" Properties=species:S:1:pos:R:3:forces:R:3 job_name=Segregation-1sol-addvac-CSL13-V-V-56-d-2.88 top_level=Segregation-1sol-addvac solute=V energy=-765.22511659 stress_kbar_3x3="_JSON [[-27.72686819, -1.86246993, 0.31785655], [-1.86246993, -31.50634321, 0.53850533], [0.31785653, 0.53850535, -2.70006331]]" pbc="T T T"
Ti       2.64588637      -0.56529888       8.77522050      -0.00310826      -0.00314746       0.00427410
Ti       5.97050464       1.86650717       8.75979675      -0.00122469      -0.00437766       0.00389022
Ti       5.40496634      -0.79870744       9.75208599       0.00093364      -0.00127177       0.00718287
Ti       4.38884263       4.13878068       9.73660096      -0.00140720       0.00047926       0.00684573
Ti       3.82480164       1.41724758      10.39683525       0.00222920      -0.00292075       0.00858984
Ti       7.09834153       3.87845803      10.38107945      -0.00344319       0.00130846       0.00884955
Ti       1.80727735      -0.39665050      11.33077141       0.00217933      -0.00246123      -0.00417232
Ti       6.53620508       1.22384065      11.31523316      -0.00308498       0.00042941      -0.00410650
Ti       4.54959541      -0.60813628      12.34198027      -0.00307559      -0.00264604      -0.00892119
Ti       4.98257242       3.49249843      12.32585163      -0.00101298      -0.00401829      -0.00862535
Ti       2.89744203       1.64933976      13.12670014       0.00018013      -0.00434766       0.00162370
Ti       3.33676682       5.74610614      13.11068387      -0.00332627      -0.00170354       0.00153947
Ti       2.31842003      -1.00187080      14.10853496       0.00095485      -0.00124396      -0.00071040
Ti       5.75750130       1.36358566      14.09324577      -0.00195076       0.00005642      -0.00092052
Ti       4.03849543       3.70369769      14.99000687      -0.00171746      -0.00336024       0.00052535
Ti       0.77806536       1.23469382      15.00604130      -0.00249943      -0.00325047       0.00048791
Ti       3.50252838       0.97649369      15.79905443      -0.00121892      -0.00290359      -0.00014115
Ti       6.87901674       3.37800324      15.78331074      -0.00163125      -0.00246484      -0.00024977
Ti       1.50582558      -0.84573644      16.87286197      -0.00004635      -0.00125615       0.00163695
Ti       6.30031996       0.73734664      16.85692230      -0.00125297      -0.00097762       0.00203710
Ti       4.74379201       2.96476081      17.62432563      -0.00019389      -0.00232859       0.00174437
Ti       4.21334625      -1.07905678      17.64100107      -0.00182028      -0.00140337       0.00157175
Ti       7.40608460       2.76849071      18.49293148      -0.00264858      -0.00072203       0.00166033
Ti       2.71165927       1.12764351      18.50879099       0.00054128      -0.00222249       0.00158472
Ti       5.87866592       5.06394165      19.64111251      -0.00003461      -0.00152112      -0.00031354
Ti       5.46464279       0.95285045      19.65698432      -0.00137434      -0.00066911      -0.00029650
Ti       3.76584065       3.22686674      20.21984650      -0.00128554      -0.00284759       0.00173967
Ti       0.50326525       0.75959715      20.23656831      -0.00154395      -0.00237439       0.00166364
Ti       6.83687879       2.87901354      21.23614629       0.00244204      -0.00138720       0.00341869
Ti       3.09415886       0.68923688      21.25126217      -0.00249478       0.00186847       0.00353322
Ti       5.04475017       5.39252802      22.48126246      -0.00115009       0.00117200       0.00176043
Ti       1.74016556       2.94975719      22.49726940       0.00169954       0.00025996       0.00133154
Ti       4.51146881       2.61910241      22.82695785      -0.00044277      -0.00024167       0.00122189
Ti       4.03117428      -1.45474455      22.84415256      -0.00030845      -0.00046843       0.00154946
Ti       2.79860111       0.76172596      24.02451441       0.00098562      -0.00037561      -0.00258946
Ti       7.04660856       2.65804583      24.00931341      -0.00041811       0.00054222      -0.00223226
Ti       5.81588976       4.88602520      25.31057666       0.00055882       0.00104435       0.00270794
Ti       5.34189683       0.80908122      25.32729337       0.00071894      -0.00054042       0.00204016
Ti       3.68044498       3.03272831      25.48143837      -0.00118125       0.00121621      -0.00662000
Ti       0.37783202       0.58717999      25.49622443      -0.00049174      -0.00080260      -0.00667802
Ti       2.88009847       0.67603506      26.78373316      -0.00147690       0.00157019      -0.00093588
Ti       6.92601115       2.68587569      26.76926433       0.00075017       0.00097177      -0.00013750
Ti       5.00424707       5.32673323      28.12610312       0.00232679       0.00689514      -0.00089892
Ti       1.70142891       2.88272033      28.14660369       0.00313084       0.00361325      -0.00131418
Ti       4.00226669      -1.53245448      28.16892028      -0.00255038      -0.00260078       0.00100408
Ti       4.45791978       2.55774600      28.16583145       0.00161027      -0.00054981       0.00072397
Ti       2.86592080       0.67195875      29.53118765       0.00286296      -0.00107796      -0.00000188
Ti       6.93379604       2.65950423      29.52061618      -0.00078612       0.00319004       0.00272312
Ti       0.35470111       0.56439691      30.82672643      -0.00104218       0.00196090      -0.00069919
Ti       5.79441391       4.85655512      30.94324393       0.00032571      -0.00024271       0.00574859
Ti       3.65829097       3.00452175      30.86675664       0.00295771       0.00454567      -0.00032739
Ti       5.32776039       0.77809608      30.97910339      -0.00344522      -0.00086684      -0.00317541
Ti       2.75875348       0.72420993      32.28349751      -0.00063919      -0.00459212      -0.00050260
Ti       7.00904879       2.61746562      32.28353878       0.00650777       0.01072423       0.00246068
Ti       4.14179605      -1.42848639      33.48122474      -0.00416109      -0.00260144      -0.00997517
Ti       4.46416233       2.46606978      33.49939623       0.00110494       0.00334151      -0.00598719
V        1.75636788       2.92001759      33.68888386       0.00588109       0.00569696       0.00520673
Ti       5.06234277       5.24332980      33.75953810       0.00416119       0.00621369       0.00911203
Ti       6.80896538       2.70542032      35.00097409      -0.00300414       0.01284686       0.00323409
Ti       2.97282391       0.58892151      35.06066205       0.00440037      -0.00711199       0.00407294
Ti       0.40997924       0.60853782      36.04174430       0.00107117       0.00167920      -0.00094983
Ti       3.68477593       3.06777034      36.05162522       0.00833910       0.00620390       0.00315172
Ti       5.41554406       0.77826473      36.49611580       0.00152759       0.00206984       0.00463392
Ti       5.77247022       4.91153901      36.60485976      -0.00142517       0.00545028       0.00336680
Ti       7.31090924       2.57965614      37.76285838       0.01065459       0.00342082       0.00153268
Ti       2.58984536       0.97647303      37.78953528      -0.00076101       0.00778001       0.00465493
Ti       4.15094384      -1.23514229      38.59528264       0.00421939       0.00625660      -0.00461705
Ti       4.63175392       2.79972361      38.60913972       0.01014313       0.00875993      -0.00559905
Ti       6.16913780       0.58304147      39.46136777       0.00330110       0.00784769       0.00159222
Ti       5.20408386       5.48377476      39.45361951       0.00412001       0.00674127       0.00078489
Ti       6.72589592       3.25662197      40.42235570       0.00323256       0.00398823      -0.01258125
Ti       3.46230153       0.78232710      40.44615968       0.00320372       0.00907290      -0.00938161
Ti       0.65221127       1.12476937      41.22651771       0.00077528       0.00486453      -0.00631218
Ti       4.00456294       3.54961957      41.22440334       0.00295466       0.00406507      -0.00635846
Ti       5.65908088       1.21465643      42.36002097       0.00034720       0.00336749       0.00616551
Ti       2.22822770      -1.15720110      42.38441854       0.00218387       0.00058861       0.00507607
Ti       2.80394485       1.56029870      42.99890493       0.00092174       0.00526264      -0.00894324
Ti       3.29541986       5.62853020      42.98228372       0.00491629       0.00195189      -0.00855965
Ti       4.63555509      -0.89506654      43.94522706       0.00517778      -0.00020559      -0.00314772
Ti       4.67863750       3.42930328      43.93491419      -0.00407413       0.00371536      -0.00405126
Ti       2.04941899       3.45664912      45.27565865      -0.00400310      -0.00833615      -0.00027800
Ti       1.54471364      -0.60340343      45.29342060      -0.00466806      -0.00754733      -0.00008303
Ti       6.97905415       3.71808410      45.50907641       0.00351543       0.00157849       0.01085222
Ti       3.73255312       1.23861441      45.52502928       0.00163139       0.00459728       0.01152466
Ti       4.89078898      -0.94420969      46.76798773      -0.00581477       0.00084793       0.01548628
Ti       4.50828122       3.62717458      46.75311831       0.00345114      -0.00530568       0.01489326
Ti       5.66020177       1.42090352      48.17070989      -0.00049853       0.00407122       0.00265011
Ti       2.40467901      -1.05026669      48.18674558       0.00371309       0.00194910       0.00302750
Ti       3.41148878       5.82656397      48.06854929      -0.00948571      -0.00844079      -0.00269734
Ti       2.91817570       1.76074837      48.08460991      -0.00267475      -0.01186801      -0.00198295
Ti       4.96825994      -1.01640326      49.57884248      -0.00604136      -0.00260741      -0.00205560
Ti       4.40938412       3.65795789      49.56341490      -0.00024470      -0.00721441      -0.00209066
Ti       1.51725481      -0.62139447      51.25338992      -0.00277501      -0.00640524      -0.01139638
Ti       2.05051356       3.42141418      51.23701867      -0.00478147      -0.00605494      -0.01143079
Ti       6.99567411       3.59675911      50.66056091      -0.00469937      -0.00452790      -0.01576878
Ti       3.62270125       1.19270948      50.67618029      -0.00168221      -0.00584799      -0.01540971
Ti       4.43316142      -0.93185739      52.22289264      -0.00090060      -0.00133768      -0.01210053
Ti       4.75022414       3.23572761      52.20691067      -0.00067366      -0.00154509      -0.01231219
Ti       3.25958779       5.37243926      53.06622590      -0.00508308      -0.00960345       0.01512301
Ti       2.60255839       1.40172348      53.08225783      -0.00606286      -0.00933004       0.01482697
