64
Lattice="5.088765 0.0 0.0 0.0 9.739025 0.0 0.0 0.0 38.303587" Properties=species:S:1:pos:R:3:forces:R:3 job_name=Segregation-1sol-addvac-T2-V-V-35-d-0.63 top_level=Segregation-1sol-addvac solute=V energy=-484.84126526 stress_kbar_3x3="_JSON [[-13.44179615, -1.3679077, -0.14531053], [-1.36790768, -13.99441013, -0.5840368], [-0.14531054, -0.58403678, -1.85802998]]" pbc="T T T"
Ti       2.81856634       9.48383505       8.65493888      -0.00069051       0.00680512      -0.00263035
Ti       0.27428443       4.61342618       8.65464656      -0.00012632       0.00427273      -0.00246211
Ti       0.89169577       1.70719100       9.19820412      -0.00034292      -0.00035733       0.00249258
Ti       3.43637885       6.57617845       9.19421859      -0.00387225      -0.00098836       0.00281654
Ti       2.67288908       3.99098664       9.79104132      -0.00080102      -0.00235810       0.00686239
Ti       0.12833812       8.86128767       9.79039178      -0.00150115      -0.00172920       0.00808552
Ti       1.13100233       6.27514066      10.56036018       0.00902918       0.00688355       0.00968645
Ti       3.67734682       1.40402904      10.56397425       0.00715501       0.00656947       0.01127310
Ti       0.26603923       3.59675367      11.15268930      -0.00611434      -0.00135204       0.00923139
Ti       2.81021513       8.46551422      11.15063923      -0.00220429      -0.00128643       0.01134539
Ti       1.07369596       0.92370492      11.81651884      -0.00046995       0.00182688       0.01063877
Ti       3.61650022       5.79396610      11.81172626       0.00040103       0.00279438       0.01146411
Ti       2.76373119       3.15742407      12.60039922       0.00333717       0.00117451       0.00850638
Ti       0.21528182       8.02909032      12.60333234       0.00294635       0.00234028       0.00766779
Ti       3.58165662       0.49256281      13.29483646       0.00094325       0.00213962       0.00695072
Ti       1.03970480       5.36381774      13.28877956       0.00064612       0.00218718       0.00432117
Ti       2.77363608       7.54217517      13.93242071      -0.00093963       0.00259696       0.00912700
Ti       0.23313508       2.67013355      13.93474340      -0.00018752       0.00061109       0.00947674
Ti       3.64501915       4.90687158      14.68545858      -0.00038495       0.00525123       0.00604818
Ti       1.09634372       0.03535386      14.70183513      -0.00114960       0.00263690       0.00676820
Ti       0.21898654       7.13149575      15.38417026       0.00049314       0.00502689       0.00283291
Ti       2.76962045       2.25526631      15.38874181       0.00352335       0.00138706       0.00209060
Ti       1.11127447       4.46918995      16.00504623       0.00119185      -0.00037845      -0.00339731
Ti       3.64643256       9.32647774      16.02371666       0.00065685      -0.00052838      -0.00298340
Ti       0.17288493       1.87857431      16.74910265      -0.00561736      -0.00111044      -0.00671832
Ti       2.70684220       6.75479305      16.73725721      -0.00583131       0.00049043      -0.01061114
Ti       1.01244074       8.95239053      17.48739603       0.00248902       0.00431585      -0.00658497
Ti       3.55905860       4.09218579      17.44267833       0.00365525      -0.00216933      -0.00679097
Ti       2.85282860       1.29591837      18.06992518      -0.00095022       0.00188330      -0.00382009
Ti       0.28459325       6.17596479      18.06307387       0.00251899       0.00174619       0.00305508
Ti       3.69169613       8.29692279      18.93188137       0.00635035       0.00529810       0.00237660
Ti       1.22562577       3.39483068      18.91241426       0.00532887       0.00395505       0.00155882
Ti       0.01368985       0.78076098      19.70638122      -0.00176092      -0.00089763      -0.00282492
Ti       2.54179775       5.67436687      19.65355932      -0.00442410      -0.00375241      -0.00197784
Ti       3.77697543       3.21091312      20.05256255      -0.00429247      -0.00023229       0.00429487
V        1.23913340       8.02754978      19.98101630      -0.00365739      -0.00057336       0.00337522
Ti       2.53419842       0.83803354      20.76772999       0.00461053       0.00030291       0.00361246
Ti       5.07799565       5.83275186      20.74602904       0.00642210      -0.00125456       0.00110578
Ti       1.61683877       3.73079760      21.59885860      -0.00008704       0.00141616       0.00071672
Ti       4.29513409       8.54033996      21.56010818       0.00019724       0.00283492      -0.00089452
Ti       4.72386517       1.84264380      22.28608832      -0.00157382      -0.00318665       0.00391606
Ti       2.16214329       6.77103092      22.22141827      -0.00491093      -0.00657997       0.00453088
Ti       1.42855117       9.39540308      22.98837522      -0.00046079       0.00290791       0.00295014
Ti       3.94416724       4.55082048      22.95337653      -0.00160635      -0.00136522       0.00008226
Ti       4.92149018       7.11016508      23.74803176       0.00112627      -0.00588331      -0.00429446
Ti       2.38260208       2.24499550      23.72373392      -0.00335704      -0.00426306      -0.00512720
Ti       1.43031542       4.84971209      24.26908265       0.00260984       0.00126303      -0.01242160
Ti       3.96950996       9.71548797      24.27447470       0.00314069      -0.00353943      -0.01290895
Ti       2.33276661       7.49211739      24.98428449      -0.00040157       0.00110469      -0.00439160
Ti       4.87264090       2.63245080      24.97914529       0.00072491      -0.00030951      -0.00750997
Ti       4.04201280       5.28262499      25.71476177      -0.00537716      -0.00110600      -0.01385035
Ti       1.49110186       0.41544741      25.71656959      -0.00415315       0.00021082      -0.01414272
Ti       4.80117813       8.02273345      26.47001635       0.00480406      -0.00050127      -0.01524067
Ti       2.26052064       3.14333477      26.46808582       0.00544113      -0.00005072      -0.01336604
Ti       1.49289050       5.82245549      27.13656459       0.00240209       0.00086819      -0.01098283
Ti       4.03778878       0.95326413      27.13933295       0.00102224       0.00065896      -0.00421515
Ti       2.35696512       8.49099153      27.77235129      -0.00010030      -0.01468341      -0.00194714
Ti       4.90476220       3.62061249      27.76864424      -0.00052753      -0.01758268       0.00739420
Ti       1.36327016       1.34066679      28.49112687      -0.00875902       0.00424779      -0.00133639
Ti       3.90646544       6.21122472      28.48809379      -0.00629608       0.00003451      -0.00335545
Ti       4.69321671       8.79384746      29.09096013      -0.00203735      -0.00233601      -0.00317896
Ti       2.15134156       3.92434092      29.08665785      -0.00173870      -0.00747962      -0.00189292
Ti       4.06873139       1.94411532      29.65002281       0.00215748       0.00186741      -0.00375365
Ti       1.52376154       6.81122614      29.65070439       0.00138068      -0.00207488      -0.00104306
