52
Lattice="4.6568 0.0 0.0 0.0 7.770572 0.0 0.0 0.0 41.044546" Properties=species:S:1:pos:R:3:forces:R:3 job_name=Segregation-1sol-addvac-CSL7-Al-Al-31-d-3.01 top_level=Segregation-1sol-addvac solute=Al energy=-390.06613483 stress_kbar_3x3="_JSON [[-14.09670069, 0.25707432, -0.14276051], [0.25707434, -16.59116265, 0.15999803], [-0.14276051, 0.15999807, -1.5062248]]" pbc="T T T"
Ti       2.31730897       7.23794742       8.70232076       0.00077618      -0.00494458      -0.00697775
Ti       4.65378631       5.34457806       8.93603801       0.00076427      -0.00862881      -0.00032268
Ti       2.32102812       2.24271353       9.46355754       0.00095758       0.00421618       0.00615061
Ti       4.65154298       0.53365352       9.80459097       0.00061090      -0.00189303       0.01261299
Ti       2.32422317       4.96159203      10.42121519       0.00094168      -0.00438868       0.00247623
Ti       4.65050317       3.37018826      10.74552148       0.00078716       0.00078881       0.00728934
Ti       2.32649646       0.09130266      11.36133117       0.00081532       0.00588942       0.01479531
Ti       0.00063754       6.12414233      11.58250998       0.00053777      -0.00126867       0.00485722
Ti       2.32231694       2.77139819      12.28219618       0.00118126      -0.00308647       0.00421261
Ti       4.65281003       1.10823510      12.64583842       0.00069585      -0.00037783       0.00021196
Ti       2.32523348       5.57010298      13.18125990       0.00061559      -0.00117711       0.00077550
Ti       4.65461974       3.90777708      13.58225733       0.00040994      -0.00543147       0.00086255
Ti       2.32876418       0.57160354      14.24127471      -0.00015845       0.00168605      -0.00534094
Ti       0.00306634       6.65604506      14.45235292       0.00012256       0.00451519      -0.00321595
Ti       2.32146947       3.32778558      15.16108570      -0.00051100      -0.00169323      -0.00714952
Ti       0.00615800       1.69583007      15.51524807       0.00040534       0.00099565      -0.00804953
Ti       2.33771766       6.09218870      15.99911703      -0.00045484       0.00265034      -0.00092856
Ti       4.61340621       4.44467738      16.48204356      -0.00102063      -0.00066269      -0.00538749
Ti       2.34730394       1.10099500      17.12741974       0.00079740      -0.00359482      -0.00117470
Ti       0.00779829       7.21308318      17.21767252       0.00040261      -0.00410050       0.00749716
Ti       2.22621463       3.78638069      18.08197652       0.00565100       0.01153929       0.00817310
Ti       0.11285868       2.18177725      18.48481501      -0.00121840      -0.00563404       0.00609991
Ti       2.25894520       6.56142948      18.70290950      -0.00263927       0.00027973       0.01164027
Ti       4.16756203       4.83007716      19.34449107       0.00965889       0.01258708       0.01084561
Ti       0.33529575       7.63105577      19.98560427       0.00032398      -0.00667787      -0.00373980
Ti       2.70842289       1.57852350      20.07350826       0.00043925      -0.01331189       0.00114456
Ti       1.22289989       4.84316953      20.80851867      -0.00928417       0.00754176      -0.00667230
Ti       3.11925873       6.61917854      21.40444751       0.00421048      -0.00216749      -0.01741389
Ti       0.62988621       2.15318039      21.65392820      -0.00105522      -0.00150744      -0.00312482
Ti       3.22051247       3.81960307      22.06136764      -0.00251292       0.00421384      -0.00600349
Ti       0.69093773       7.32581763      22.88519976       0.00178671       0.00215079      -0.00675830
Al       3.00403337       1.17542473      23.00274206      -0.00080850       0.00042941       0.00292641
Ti       0.75998028       4.59335823      23.63962041      -0.00046269      -0.00357440       0.00081936
Ti       3.04504978       6.21212459      24.08825609      -0.00018362      -0.00081519       0.00293292
Ti       0.69115981       1.77575256      24.53623931      -0.00072406       0.00266503       0.00519356
Ti       3.08832549       3.40437418      24.90077488       0.00024351      -0.00129617       0.00250060
Ti       0.70709608       6.67755975      25.65632233      -0.00110911       0.00265023       0.01063789
Ti       3.05636633       0.61561068      25.85446343      -0.00037773       0.00442512       0.00342836
Ti       0.73622408       3.91592764      26.49543411      -0.00061743       0.00273103      -0.00120591
Ti       3.05491016       5.57167771      26.88414842      -0.00073759      -0.00060738       0.00593452
Ti       0.71906781       1.16425432      27.47326814      -0.00034131      -0.00123639      -0.00358611
Ti       3.05998761       2.82553838      27.78942846      -0.00078545       0.00247710      -0.00092362
Ti       0.72276904       6.09162862      28.46546556      -0.00089002      -0.00250999       0.00300425
Ti       3.05521920       0.01334960      28.73275293      -0.00091745      -0.00264982      -0.00020224
Ti       0.72735321       3.37571309      29.39485624      -0.00107058       0.00381421      -0.00243850
Ti       3.05250405       5.08053053      29.72498358      -0.00088480       0.00901785      -0.00993001
Ti       0.73015029       0.62397653      30.29138626      -0.00064770       0.00494880      -0.00216032
Ti       3.05879843       2.21899726      30.57176267      -0.00093230      -0.00151815      -0.00194102
Ti       0.72507924       5.52875895      31.26682704      -0.00059266      -0.00043796      -0.01122259
Ti       3.05270428       7.25187791      31.55373953      -0.00075813      -0.00155013      -0.01114118
Ti       0.73176449       2.62275895      32.06462805      -0.00082147      -0.00382137      -0.00626639
Ti       3.05377203       4.49540020      32.37960203      -0.00061770      -0.00164932      -0.00374517
