64
Lattice="5.871999 0.0 0.0 0.0 6.890708 0.0 0.0 0.0 43.401158" Properties=species:S:1:pos:R:3:forces:R:3 job_name=Segregation-1sol-addvac-T1m-V-V-36-d-1.42 top_level=Segregation-1sol-addvac solute=V energy=-486.92653301 stress_kbar_3x3="_JSON [[-6.76312066, -0.00024108, 0.00025361], [-0.00024108, -16.82619941, -2.01276786], [0.00025364, -2.01276785, -3.09631442]]" pbc="T T T"
Ti       5.87124375       3.09821620       9.30578195       0.00096321       0.00814073       0.01567887
Ti       2.93686147       3.09814954       9.30574632      -0.00091746       0.00891948       0.01477879
Ti       5.87133683       0.01220702       8.91521417       0.00109507       0.00131150       0.01317186
Ti       2.93673285       0.01217568       8.91505913      -0.00105659       0.00141845       0.01260412
Ti       1.46811715       5.24617937      10.49609351      -0.00149534       0.00512167       0.01702018
Ti       4.40395379       5.24428136      10.49449622       0.00157248       0.00557802       0.01782438
Ti       4.40405417       1.29618863      10.86885567       0.00091861       0.00088162       0.00694981
Ti       1.46802472       1.29793240      10.86762466      -0.00127860       0.00079154       0.00527596
Ti       0.00029671       3.39707600      12.13819764       0.00024208       0.00462100      -0.00596453
Ti       2.93572360       3.39714668      12.13819948      -0.00014879       0.00446513      -0.00495953
Ti       0.00020190       6.33515251      12.65994135       0.00054274      -0.00324522      -0.00934977
Ti       2.93585361       6.33516352      12.66004926      -0.00057594      -0.00322636      -0.00890795
Ti       4.40396141       1.59393384      13.80030442       0.00030141       0.00725005      -0.00374744
Ti       1.46804784       1.59727157      13.79943003      -0.00017286       0.00715694      -0.00414593
Ti       4.40400564       4.45450030      14.36062584       0.00009389       0.00067358      -0.00186253
Ti       1.46803443       4.45436618      14.36672170      -0.00015042       0.00028562      -0.00178123
Ti       2.93282411       6.62338217      15.52218515       0.00012914       0.00534466       0.00957816
Ti       0.00321814       6.62345483      15.52217582      -0.00029852       0.00495848       0.00954134
Ti       2.93354321       2.59358154      16.06272611      -0.00019255       0.00171450       0.00667305
Ti       0.00247250       2.59359501      16.06278727       0.00031958       0.00167612       0.00649832
Ti       4.40405602       4.75961355      17.21106909      -0.00008425       0.00238118       0.00823782
Ti       1.46799991       4.76062917      17.22113412       0.00006115       0.00369065       0.00899617
Ti       4.40399539       0.76234504      17.76949119       0.00005248      -0.00023638       0.00426633
Ti       1.46804803       0.76325250      17.79012254      -0.00006249      -0.00022958       0.00429524
Ti       2.94306633       2.93368483      18.96119975      -0.00129497       0.00168377      -0.00055311
Ti       5.86498490       2.93369060      18.96131774       0.00136836       0.00136015      -0.00077739
Ti       5.87038601       5.79058141      19.45672890       0.00032084       0.00373392       0.00335105
Ti       2.93767435       5.79052312      19.45668541      -0.00046489       0.00383633       0.00335646
Ti       4.40398203       1.02280332      20.59791641       0.00007670      -0.00321746       0.00001711
Ti       1.46804431       1.00941185      20.62831440      -0.00002687      -0.00228788      -0.00096410
Ti       1.46804309       4.07437362      21.13873809       0.00012139       0.00294803      -0.00505993
Ti       4.40399324       4.05685947      21.19756410      -0.00005996       0.00514011      -0.00112575
Ti       2.94859120       6.16781445      22.51996795      -0.00000240       0.00035575      -0.00196080
Ti       5.85945301       6.16769228      22.51998390      -0.00003676       0.00047824      -0.00183112
Ti       5.81430218       2.18685234      22.71484074      -0.00055761      -0.00258552       0.00202553
Ti       2.99375849       2.18682516      22.71487715       0.00063053      -0.00249205       0.00190021
Ti       1.46815383       4.15232542      23.91869613       0.00000189       0.00445250       0.00552289
V        4.40386048       4.17452120      23.97723385      -0.00003863       0.00281335       0.00437922
Ti       1.46809243       0.79006992      24.53278550      -0.00013854      -0.00866948       0.00759764
Ti       4.40392675       0.77580392      24.57151723       0.00019244      -0.00682058       0.00459865
Ti       2.95077332       5.62824786      25.69488411      -0.00076882       0.00163167      -0.00095841
Ti       5.85726694       5.62823063      25.69487476       0.00067824       0.00169390      -0.00090615
Ti       2.95025635       2.80146739      26.01412280      -0.00001195      -0.00120836      -0.00480874
Ti       5.85775990       2.80136266      26.01410045      -0.00009609      -0.00100250      -0.00491907
Ti       1.46802158       0.68714941      27.30071605      -0.00001838      -0.00318986      -0.00404987
Ti       4.40398823       0.67566008      27.32544288       0.00001576      -0.00192896      -0.00150481
Ti       1.46802619       4.58698553      27.87588909      -0.00002684      -0.00036866      -0.01042126
Ti       4.40399293       4.58079867      27.89567040      -0.00000129      -0.00156408      -0.01045946
Ti       2.93146611       2.47034827      29.02356171      -0.00073294      -0.00656818      -0.00355674
Ti       0.00454235       2.47035763      29.02354927       0.00078057      -0.00650790      -0.00341235
Ti       2.93236617       6.52763399      29.55549198       0.00007680       0.00000673      -0.00489280
Ti       0.00364077       6.52765933      29.55538784      -0.00003207      -0.00009660      -0.00447857
Ti       1.46799940       4.38691637      30.69717855      -0.00008480      -0.00461324       0.00389407
Ti       4.40398235       4.38925599      30.71193924       0.00011744      -0.00494716       0.00407515
Ti       4.40401223       1.42133332      31.24829103       0.00019585      -0.00559170      -0.00058326
Ti       1.46800671       1.42549034      31.25560006      -0.00014666      -0.00594077       0.00111996
Ti       2.93340930       6.22568334      32.51609881      -0.00102717      -0.00283414      -0.00111791
Ti       0.00259032       6.22568070      32.51605103       0.00106845      -0.00256875      -0.00098438
Ti       0.00714497       3.30069649      32.86774985       0.00202254      -0.00308277      -0.01072455
Ti       2.92884304       3.30069452      32.86782780      -0.00204540      -0.00311393      -0.01101643
Ti       1.46802650       1.14756650      34.06969734      -0.00025087      -0.00424049      -0.01884552
Ti       4.40393932       1.14493677      34.05872779       0.00029852      -0.00486258      -0.01691804
Ti       4.40397472       4.94422545      34.46061556       0.00020644      -0.00497149      -0.01683293
Ti       1.46799913       4.94361828      34.47131791      -0.00016687      -0.00430274      -0.01884594
