64
Lattice="5.872 0.0 0.0 0.0 6.890708 0.0 0.0 0.0 43.394398" Properties=species:S:1:pos:R:3:forces:R:3 job_name=Segregation-1sol-addvac-T1g-V-V-39-d-3.19 top_level=Segregation-1sol-addvac solute=V energy=-485.91677528 stress_kbar_3x3="_JSON [[-6.03331205, 0.0002354, 0.00915762], [0.0002354, -9.29495527, -0.17476113], [0.00915762, -0.17476115, -0.4272367]]" pbc="T T T"
Ti       4.40310522       5.09571383       8.59880589      -0.00006581      -0.00651222       0.00111339
Ti       1.46795929       5.03993145       8.72731820      -0.00073354      -0.00152197       0.00558037
Ti       5.75750610       3.01764094       9.53654464      -0.01806493      -0.00468691      -0.00573264
Ti       3.04945050       3.01803109       9.53852758       0.01716454      -0.00499922      -0.00375845
Ti       0.00055314       6.75334189      10.17465882      -0.00016747      -0.00060977       0.00939204
Ti       2.93538992       6.75307453      10.17482455      -0.00008749       0.00007496       0.00981459
Ti       4.40592064       1.86040601      11.54873547       0.00048323       0.00476151       0.00904778
Ti       1.46629973       1.93008289      11.47432422      -0.00123795       0.00156267       0.00650696
Ti       1.46812460       4.79236935      11.64801960       0.00022717       0.00735202       0.00734475
Ti       4.40447696       4.76747923      11.55455393       0.00031681       0.00874456      -0.00686676
Ti       0.01947611       6.81652568      12.97955502       0.00048584       0.00573253       0.00458486
Ti       2.91706910       6.81665334      12.97946777      -0.00039546       0.00555567       0.00412709
Ti       2.92665208       2.99765688      13.54978878       0.00044381      -0.00604729      -0.00034475
Ti       0.00977974       2.99786766      13.55135352       0.00023480      -0.00595589      -0.00029780
Ti       4.40390047       5.13541003      14.68630009      -0.00008839       0.00297169      -0.00468500
Ti       1.46839617       5.14291090      14.70315950       0.00033201       0.00511327       0.00326101
Ti       4.40413619       1.07280825      15.17361127       0.00023900      -0.00082679      -0.00577657
Ti       1.46811422       1.07888604      15.20222233       0.00012631      -0.00111712      -0.00230742
Ti       2.94129217       3.24310777      16.35135838       0.00080927       0.00341445      -0.00457845
Ti       5.86682813       3.24303103      16.35213829      -0.00062939       0.00334942      -0.00397240
Ti       2.93917761       6.14014138      16.92811489      -0.00066231      -0.00443961      -0.00158692
Ti       5.86904326       6.14026614      16.92819836       0.00061355      -0.00442590      -0.00189540
Ti       4.40393499       1.42557262      18.08456704       0.00005370       0.00043236       0.00081850
Ti       1.46812432       1.42175765      18.09228699       0.00003893      -0.00029095       0.00608410
Ti       4.40392609       4.24130495      18.60281033       0.00000770       0.00145388       0.00369106
Ti       1.46813061       4.24950036      18.59587483       0.00011068       0.00205340       0.00684409
Ti       2.94056530       6.40802388      19.75279645       0.00189033       0.00089150       0.01185423
Ti       5.86741723       6.40805172      19.75279974      -0.00185419       0.00089331       0.01185239
Ti       2.93557451       2.43092968      20.32506474       0.00112604      -0.00054309       0.00793760
Ti       0.00042478       2.43096773      20.32495751      -0.00113656      -0.00056144       0.00804756
Ti       1.46792584       4.59614698      21.51486362       0.00015586       0.00170852       0.00309206
Ti       4.40400747       4.57666517      21.54061397      -0.00009964       0.00298506       0.00291289
Ti       4.40400979       0.53724801      21.96396652      -0.00002441      -0.00209246      -0.00494871
Ti       1.46797615       0.53342287      21.97878241       0.00011260      -0.00001317       0.00135924
Ti       0.05964473       2.64376389      23.15570509       0.00332952      -0.00232075      -0.00686920
Ti       2.87629816       2.64374483      23.15573526      -0.00328750      -0.00228600      -0.00650593
Ti       0.02407566       5.73424146      23.69539872       0.00073489       0.00197454      -0.01348902
Ti       2.91187105       5.73421643      23.69532672      -0.00069789       0.00203517      -0.01334086
Ti       4.40405194       3.78297158      25.08341163      -0.00020782      -0.00241873      -0.00743834
V        1.46787395       3.90619130      25.08153132       0.00009931       0.00046976      -0.00500448
Ti       4.40401486       0.90533960      25.08037048      -0.00007719      -0.00457136      -0.00269403
Ti       1.46798665       0.98594138      25.08223882       0.00013530      -0.00144248      -0.00498056
Ti       0.02422359       5.73683283      26.47911950       0.00158106       0.00368323      -0.00260743
Ti       2.91172880       5.73680389      26.47914006      -0.00155673       0.00369805      -0.00272665
Ti       2.87439479       2.66192830      27.00553415      -0.00223552      -0.00414007      -0.00228933
Ti       0.06151892       2.66189215      27.00562817       0.00225581      -0.00408607      -0.00242075
Ti       4.40395512       0.55396638      28.19305854      -0.00007851       0.00146292       0.00349261
Ti       1.46797437       0.55181617      28.17799477       0.00005117       0.00165544       0.00284124
Ti       1.46795369       4.61709937      28.64616103       0.00006157       0.00230322       0.00492099
Ti       4.40400633       4.59432221      28.61800221      -0.00023200       0.00228869       0.00300341
Ti       2.93516752       2.43852632      29.84218064       0.00176318      -0.00186173      -0.00072772
Ti       0.00075919       2.43849889      29.84224638      -0.00172738      -0.00180484      -0.00093019
Ti       2.93967431       6.41624180      30.38467465      -0.00079466       0.00030851      -0.00381524
Ti       5.86821973       6.41617035      30.38477355       0.00085186       0.00062478      -0.00479583
Ti       4.40412077       4.25549812      31.58003452      -0.00018722      -0.00147027       0.00255775
Ti       1.46800172       4.26038284      31.58499399       0.00028577      -0.00015155      -0.00089734
Ti       4.40386835       1.38604319      32.03466479       0.00018918      -0.00063923      -0.00025538
Ti       1.46784520       1.38511375      32.03040408      -0.00019067      -0.00114961      -0.00102282
Ti       2.93698874       6.18615685      33.17476945      -0.00054996      -0.00376115      -0.00392084
Ti       5.87116683       6.18604785      33.17449099       0.00058288      -0.00311202      -0.00296406
Ti       5.86577430       3.22352262      33.76883770      -0.00014583       0.00336857      -0.00446143
Ti       2.94230260       3.22322286      33.76896679       0.00036390       0.00501327      -0.00474271
Ti       1.46848011       1.10806854      34.75972520      -0.00088634      -0.00419105       0.00170442
Ti       4.40402960       1.10835573      34.76465153       0.00084518      -0.00388624       0.00186441
