52
Lattice="4.6568 0.0 0.0 0.0 7.770572 0.0 0.0 0.0 41.044546" Properties=species:S:1:pos:R:3:forces:R:3 job_name=Segregation-1sol-addvac-CSL7-Al-Al-38-d-6.58 top_level=Segregation-1sol-addvac solute=Al energy=-390.025457 stress_kbar_3x3="_JSON [[-13.70422625, -0.05721619, -0.40976324], [-0.05721622, -19.12171904, -0.24262229], [-0.4097632, -0.24262227, -0.71667979]]" pbc="T T T"
Ti       0.02861450       2.62712939       8.95534216       0.00128615      -0.00095214      -0.00206552
Ti       2.35418355       4.50152960       8.64623466       0.00185273      -0.00780469       0.00986422
Ti       2.35666023       7.26337167       9.46124568       0.00141384      -0.00087355      -0.00167613
Ti       0.02645722       5.54043294       9.76504420       0.00190022      -0.00070871       0.00725161
Ti       2.35697735       2.22719597      10.44481803       0.00160075      -0.00000110       0.00119302
Ti       0.02880895       0.62895951      10.72641972       0.00188760       0.00316878       0.00142348
Ti       2.35548101       5.09587037      11.29969790       0.00190346      -0.00256196       0.00644635
Ti       0.02959651       3.38098797      11.62951296       0.00089168       0.00410986      -0.00632763
Ti       2.35857933       0.02280847      12.27561080       0.00157887       0.00244727       0.00172347
Ti       0.02961615       6.10686232      12.57332132       0.00117028       0.00698775      -0.00139235
Ti       2.35892745       2.82515973      13.22392729       0.00130703      -0.00026415      -0.00156550
Ti       0.03185009       1.16238554      13.55072947       0.00190002       0.00441508       0.00000305
Ti       2.35612331       5.57471687      14.13917526       0.00155407       0.00550879       0.00492234
Ti       0.02736367       3.92477516      14.52516222       0.00105344       0.00370712      -0.00303929
Ti       2.36138135       0.60282652      15.15464277       0.00095815      -0.00034202       0.00289323
Ti       0.03864933       6.68130401      15.39981932       0.00074711      -0.00022621       0.00266572
Ti       2.35053126       3.36419768      16.09987967       0.00094436       0.00411383       0.00061985
Ti       0.03748305       1.72168648      16.45620527       0.00156874       0.00088793       0.00035314
Ti       2.37411555       6.13514849      16.94217311       0.00222032       0.00016862      -0.00342716
Ti       4.64951228       4.48336396      17.42185778       0.00191607       0.00554889       0.00150701
Ti       2.38242449       1.13815719      18.05108085       0.00263371      -0.00004055      -0.00003962
Ti       0.05178635       7.25015989      18.18549683      -0.00265057       0.00058257      -0.00357554
Ti       2.25323813       3.84334352      18.98244746       0.00400812       0.00641776       0.00482334
Ti       0.15176298       2.21470604      19.41120846      -0.00129450       0.00089509       0.00343186
Ti       2.30560339       6.62298709      19.63357080       0.00661555      -0.00855186       0.00921868
Ti       4.17444221       4.85610759      20.30998875       0.00103651       0.00427078       0.00341135
Ti       0.40012305       7.69386899      20.98783593      -0.00185470       0.00387617       0.00773831
Ti       2.72170192       1.66599831      21.00423409       0.00068017       0.00085110       0.00110423
Ti       1.27361786       4.86050775      21.71574036      -0.00127915       0.00094212      -0.00254634
Ti       3.13894803       6.64822759      22.34148367      -0.00340262      -0.00756367      -0.01212115
Ti       0.64500380       2.20686693      22.60266283       0.00010245      -0.00236663      -0.00489970
Ti       3.19669053       3.84546503      23.04871036      -0.00367523       0.00198347      -0.01174167
Ti       0.73078033       7.24790393      23.79826116      -0.00116649       0.00192032      -0.01046727
Ti       3.06944600       1.14403984      23.96357836      -0.00081993      -0.00212103      -0.01092699
Ti       0.78166620       4.44891002      24.61885826       0.00015977      -0.00179214      -0.00993969
Ti       3.04591538       6.12242012      24.98386259       0.00015996      -0.00479605      -0.01300143
Ti       0.74288119       1.67643557      25.58061136      -0.00193714       0.00703703      -0.01195035
Ti       3.06536478       3.33677230      25.94786988      -0.00087146      -0.00082457      -0.00778173
Ti       0.74900125       6.58667318      26.56792397      -0.00196406       0.00380901      -0.00518481
Ti       3.07022832       0.48888703      26.83769759      -0.00104074       0.00146870      -0.01097527
Al       0.74451317       3.86606398      27.46772432       0.00010575      -0.00160819       0.00683002
Ti       3.07820092       5.48305215      27.87066908      -0.00149280       0.00208309       0.00133726
Ti       0.74872992       1.10642132      28.41175061      -0.00211367      -0.00328486      -0.00457168
Ti       3.07277882       2.79045755      28.75706514      -0.00126572       0.00099100       0.00042789
Ti       0.74995968       6.05665722      29.41264666      -0.00169409      -0.00874693       0.00057137
Ti       3.07712519       0.04457578      29.69234857      -0.00302500       0.00765728       0.00664680
Ti       0.74644175       3.39782916      30.29757782      -0.00254532       0.00146259       0.00373452
Ti       3.07548724       5.01294985      30.69713025      -0.00145225      -0.00488875       0.01705398
Ti       0.74980361       0.50675689      31.22042591      -0.00216061      -0.00726151       0.01317204
Ti       3.07560418       2.21209883      31.54502745      -0.00215887      -0.01120984       0.00251036
Ti       0.74720138       5.38849077      32.12707146      -0.00245384      -0.00474362       0.01355821
Ti       3.07989281       7.29616192      32.39489770      -0.00283812      -0.00377725       0.00278008
