64
Lattice="5.088765 0.0 0.0 0.0 9.739025 0.0 0.0 0.0 38.303587" Properties=species:S:1:pos:R:3:forces:R:3 job_name=Segregation-1sol-addvac-T2-V-V-44-d-4.19 top_level=Segregation-1sol-addvac solute=V energy=-484.6641381 stress_kbar_3x3="_JSON [[-10.64190501, -2.74088471, 0.04999886], [-2.74088468, -13.71001263, 0.45700786], [0.04999891, 0.45700788, -1.11671245]]" pbc="T T T"
Ti       2.79925416       9.53723715       8.66312195      -0.00004582      -0.00321452       0.00833061
Ti       0.25356532       4.66571526       8.66490851       0.00016938      -0.00350941       0.00915850
Ti       3.41585045       6.62697370       9.19530178      -0.00194509      -0.00419258       0.00404714
Ti       0.87106952       1.75887683       9.19556431      -0.00034317      -0.00487548       0.00385553
Ti       0.10977174       8.90939361       9.79730920      -0.00191369      -0.00375482       0.00696296
Ti       2.65212318       4.03917787       9.80125209      -0.00242745      -0.00244440       0.00572536
Ti       1.11949702       6.32558044      10.56815726      -0.00030344      -0.00679679       0.00434585
Ti       3.66385994       1.45628736      10.56970507      -0.00020734      -0.00759703       0.00297593
Ti       2.79410785       8.51242944      11.16250582       0.00207816      -0.00158479       0.00428109
Ti       0.24791372       3.64160596      11.16555921       0.00289144      -0.00164628       0.00536034
Ti       1.06632199       0.97756246      11.81026203       0.00259480      -0.00531407       0.00451415
Ti       3.61113612       5.84697111      11.81089900       0.00252442      -0.00355700       0.00467914
Ti       0.20549363       8.07965853      12.60907878      -0.00015195      -0.00357981       0.00775235
Ti       2.74969120       3.20867332      12.61424698       0.00016771      -0.00363681       0.00608297
Ti       1.02181196       5.41186580      13.28630268      -0.00035484      -0.00228331       0.00906418
Ti       3.56502048       0.54616684      13.28983347      -0.00122310      -0.00340391       0.00912278
Ti       2.77236173       7.56972095      13.93574390      -0.00025978       0.00190670       0.00961027
Ti       0.22866853       2.69789914      13.94165903       0.00036979       0.00153911       0.00963390
Ti       1.10163463       0.06627212      14.69744509       0.00116214       0.00143012       0.00654683
Ti       3.64463697       4.93827131      14.69834608       0.00078594       0.00280460       0.00694021
Ti       0.20928695       7.15829959      15.39681837       0.00019455       0.00231456       0.00402585
Ti       2.74886951       2.28505580      15.41243569      -0.00085747       0.00095278       0.00576589
Ti       3.66574258       9.37914000      15.97998974      -0.00015040      -0.00463991       0.00276472
Ti       1.12132095       4.51260117      15.98058637       0.00040354      -0.00354752       0.00186943
Ti       0.16070302       1.92526719      16.74143469       0.00091798      -0.00262069      -0.00199861
Ti       2.69915045       6.80841708      16.74267179      -0.00033006      -0.00131435      -0.00167424
Ti       3.53180725       4.12502945      17.43584393      -0.00060342       0.00163249      -0.00519681
Ti       0.97798664       9.00738088      17.44292155      -0.00176939       0.00360203      -0.00773834
Ti       0.32041560       6.13531723      18.05866685      -0.00306719       0.00255329      -0.00283755
Ti       2.89441446       1.24077912      18.09192567      -0.00413491       0.00155021      -0.00230345
Ti       1.25154896       3.36199369      18.91140944       0.00078152       0.00132432      -0.00792483
Ti       3.79679573       8.24629356      18.94693487       0.00317965       0.00305801      -0.00784136
Ti       2.55181086       5.63004891      19.69337355      -0.00353626       0.00281770      -0.00318266
Ti       0.03352295       0.76322883      19.74210900      -0.00250193       0.00512985      -0.00136668
Ti       1.26161784       8.05196061      20.01006394      -0.00127544      -0.00657230       0.00709987
Ti       3.80681587       3.17861009      20.01989168       0.00028941      -0.00499431       0.00378686
Ti       5.08481796       5.74183856      20.76579331       0.00176739       0.00391813       0.00634990
Ti       2.58690046       0.84975822      20.82320100      -0.00042579       0.00403266       0.00562977
Ti       1.67095595       3.65361859      21.59287238       0.00290165      -0.00289494       0.01069513
Ti       4.23597798       8.41747767      21.67269232       0.00038496       0.00029585       0.01041114
Ti       2.08278244       6.72425634      22.30809845      -0.00684518       0.00231769       0.00037155
Ti       4.72129069       1.88079146      22.31009012      -0.00517914       0.00344379       0.00329256
Ti       3.91473454       4.62389745      23.00144301       0.00125845       0.00406991       0.00519223
Ti       1.32851914       9.37708393      23.01102941      -0.00074911       0.00484757       0.00213260
Ti       2.42008214       2.21908771      23.74850013      -0.00153858       0.00783286      -0.00709737
V        5.00790897       7.10929245      23.83372023       0.00147110      -0.00061578      -0.00790636
Ti       1.37209335       4.79488655      24.20740101      -0.00056491      -0.00272510      -0.00627904
Ti       3.91052061       9.66781256      24.21534137       0.00148929      -0.00208547      -0.00499132
Ti       2.39523246       7.39461904      24.93642889       0.00046039       0.00108705      -0.00312511
Ti       4.89727637       2.58162198      24.95400412       0.00129167      -0.00155535      -0.00675544
Ti       4.08656846       5.25075328      25.68624712      -0.00310989       0.00186910      -0.01342326
Ti       1.50706710       0.34587092      25.69723644       0.00042256       0.00191762      -0.01361670
Ti       4.82466707       8.00244995      26.40630602       0.00197030       0.00287202      -0.01397395
Ti       2.25198526       3.12805563      26.44500288       0.00279438       0.00336245      -0.01114081
Ti       1.49301050       5.79683795      27.13551712       0.00530490       0.00700979      -0.01022050
Ti       4.01870737       0.92569022      27.10798863       0.00381819       0.00782600      -0.00919373
Ti       2.37821716       8.44524340      27.74269278      -0.00019837      -0.00782009      -0.00897053
Ti       4.89931369       3.58722246      27.75579444      -0.00313066      -0.00600837      -0.00859566
Ti       3.92305596       6.17554261      28.45257061      -0.00241305       0.00011520      -0.00817909
Ti       1.35664933       1.29611182      28.44670301      -0.00173529       0.00188909      -0.00612699
Ti       4.70868567       8.75394275      29.04925170       0.00468022       0.00505448       0.00136391
Ti       2.14911500       3.88323585      29.06526893       0.00576310       0.00332559      -0.00090674
Ti       1.54017801       6.78055426      29.63540010      -0.00119113       0.00512117      -0.00866100
Ti       4.06363341       1.89734373      29.62398569       0.00019426       0.00396142      -0.00851333
