64
Lattice="5.872 0.0 0.0 0.0 6.890708 0.0 0.0 0.0 43.394398" Properties=species:S:1:pos:R:3:forces:R:3 job_name=Segregation-1sol-addvac-T1g-Al-Al-31-d-0.22 top_level=Segregation-1sol-addvac solute=Al energy=-482.89409613 stress_kbar_3x3="_JSON [[-4.34931407, 0.00030395, 0.00015928], [0.00030396, -14.60901873, -1.25571717], [0.00015931, -1.25571719, -0.54478397]]" pbc="T T T"
Ti       2.93385160       3.41516577       8.94819394       0.00068953       0.01153598      -0.01342939
Ti       0.00220089       3.41511549       8.94828136      -0.00060365       0.01174499      -0.01369128
Ti       2.93440003       6.51575429       9.33664757       0.00015889       0.00333754       0.00732498
Ti       0.00166538       6.51569366       9.33675442      -0.00014247       0.00356377       0.00721476
Ti       1.46803957       1.76654518      10.53188335       0.00018787      -0.00344072       0.00111265
Ti       4.40399588       1.77080836      10.53312415      -0.00009801      -0.00542550       0.00027464
Ti       4.40404056       4.71120030      10.88252170      -0.00017997       0.01260940      -0.00262832
Ti       1.46801643       4.70718029      10.88873091       0.00012154       0.01249631      -0.00463840
Ti       2.93647629       6.79749315      12.15444289      -0.00100262       0.00602176      -0.01475943
Ti       5.87158557       6.79743551      12.15452391       0.00089966       0.00626001      -0.01512183
Ti       2.93486031       2.87660888      12.68697393      -0.00013005      -0.00060510       0.00326519
Ti       0.00119221       2.87661444      12.68696600       0.00016634      -0.00058206       0.00321330
Ti       4.40404882       5.02166330      13.82864770      -0.00021376       0.00379605       0.00234308
Ti       1.46803511       5.01746868      13.83966830       0.00000972       0.00310904       0.00262193
Ti       1.46800714       0.97341769      14.35980334       0.00023755       0.00792844       0.00708810
Ti       4.40400966       0.97752901      14.37129090      -0.00001234       0.00532625       0.00563047
Ti       5.86056841       3.12459420      15.51401631       0.00298508       0.00580400       0.00866842
Ti       2.94747254       3.12461955      15.51395417      -0.00300386       0.00552742       0.00920847
Ti       2.94653278       6.04639349      16.08207119      -0.00117060       0.00124992       0.00729850
Ti       5.86154933       6.04641172      16.08203744       0.00112487       0.00105833       0.00723179
Ti       1.46800384       1.31494139      17.26046104       0.00007503      -0.00062737       0.00060981
Ti       4.40406908       1.32250854      17.28218774      -0.00035749      -0.00043194       0.00139950
Ti       1.46798616       4.16169484      17.69716709       0.00015011       0.00469269      -0.00652159
Ti       4.40400241       4.16631571      17.76318411      -0.00008169       0.00338316      -0.00298950
Ti       2.91474063       6.29627843      18.90961230      -0.00116296       0.00427979      -0.00149689
Ti       0.02125561       6.29626236      18.90955356       0.00124429       0.00433386      -0.00127445
Ti       5.84353231       2.43150140      19.46113171       0.00232127      -0.00163249       0.01282668
Ti       2.96444572       2.43152168      19.46117037      -0.00225250      -0.00165161       0.01237236
Ti       1.46800927       4.58996515      20.66897795      -0.00008153       0.00076724       0.01335684
Al       4.40397499       4.54517924      20.72874993       0.00014602       0.00083683       0.01066693
Ti       4.40401692       0.43835474      21.04388411       0.00008812       0.00321958       0.01487165
Ti       1.46797259       0.57463173      21.07075143      -0.00008866       0.00203136       0.01166484
Ti       5.80493988       2.55970900      22.21287456       0.00319240      -0.00272090      -0.00354941
Ti       3.00302703       2.55966025      22.21282416      -0.00312880      -0.00263824      -0.00350787
Ti       0.05586604       5.87019352      22.81179382       0.00169345       0.00350387      -0.01362924
Ti       2.88007993       5.87021544      22.81176005      -0.00150772       0.00352005      -0.01363686
Ti       4.40394173       3.87936653      24.13719077       0.00007083      -0.00529185      -0.01273491
Ti       1.46805293       3.84553070      24.13892552      -0.00023127      -0.00199862      -0.01008156
Ti       4.40397337       0.99938973      24.22845675       0.00018712      -0.00360384      -0.00941181
Ti       1.46801339       1.01303403      24.29164305      -0.00005056      -0.00334031      -0.01271715
Ti       0.02019861       5.80181051      25.61864065      -0.00091733       0.00035085      -0.00372786
Ti       2.91582639       5.80177294      25.61866834       0.00087329       0.00047997      -0.00392210
Ti       2.94721291       2.72718979      26.19817390       0.00059117      -0.00748273      -0.00017007
Ti       5.86077707       2.72719608      26.19817012      -0.00060576      -0.00746311      -0.00031465
Ti       4.40400237       0.62675962      27.33607652      -0.00002525      -0.00322474      -0.00471675
Ti       1.46799404       0.62494685      27.35629843       0.00004197      -0.00268790      -0.00685235
Ti       4.40399068       4.67089680      27.81659442       0.00003087      -0.00376332      -0.00082963
Ti       1.46802375       4.66130629      27.83480698      -0.00016812      -0.00328634      -0.00293648
Ti       2.94016582       2.52499644      29.01232471       0.00011741      -0.00464142      -0.00161770
Ti       5.86785595       2.52495915      29.01233681      -0.00022007      -0.00440521      -0.00184978
Ti       2.93509320       6.52023231      29.58163185       0.00033658      -0.00186323       0.00220073
Ti       0.00088359       6.52027995      29.58162932      -0.00021970      -0.00205864       0.00217139
Ti       4.40404403       4.39521475      30.71320368      -0.00017052      -0.00485115       0.00852228
Ti       1.46797987       4.39575818      30.72473417       0.00006787      -0.00539870       0.00814685
Ti       4.40401585       1.46398183      31.22605387       0.00006521      -0.00016894       0.00812534
Ti       1.46793829       1.45979868      31.22415643       0.00010273      -0.00044054       0.00940045
Ti       5.87049339       6.26577066      32.50430220       0.00029007       0.00129107      -0.01141995
Ti       2.93756792       6.26583872      32.50430762      -0.00029218       0.00112459      -0.01159458
Ti       2.94244475       3.31494855      32.87780839       0.00016000      -0.01626671      -0.00580156
Ti       5.86557397       3.31505591      32.87778320      -0.00025451      -0.01658759      -0.00570040
Ti       4.40401031       1.18591480      34.06614037       0.00003457      -0.00890105       0.00219052
Ti       1.46807702       1.18262272      34.05944376      -0.00008678      -0.01018406       0.00162259
Ti       4.40396365       4.97708769      34.45114502       0.00007190       0.00144362       0.01296563
Ti       1.46805424       4.97757035      34.44355855      -0.00007261       0.00103820       0.01166310
