64
Lattice="5.871999 0.0 0.0 0.0 6.890708 0.0 0.0 0.0 43.401158" Properties=species:S:1:pos:R:3:forces:R:3 job_name=Segregation-1sol-addvac-T1m-V-V-40-d-3.20 top_level=Segregation-1sol-addvac solute=V energy=-485.91288652 stress_kbar_3x3="_JSON [[-6.11515662, -0.00433685, 0.01117017], [-0.00433684, -8.91489634, -0.16971363], [0.0111702, -0.16971364, 0.09764053]]" pbc="T T T"
Ti       2.93662144       6.78761072       8.69673599      -0.00231915      -0.01492606       0.00055582
Ti       2.93582662       2.83641985      34.75469080       0.00091174      -0.00013559       0.00535780
Ti       5.87076550       6.81142387       8.62496123       0.00188662       0.00129518       0.00469047
Ti       0.00008106       2.83657654      34.75930048      -0.00089612       0.00029031       0.00442872
Ti       4.47974879       4.75544204       9.56029348       0.00005941      -0.00264207      -0.00501734
Ti       1.39121020       4.75509300       9.55627441      -0.00117068      -0.00090222      -0.00827437
Ti       4.40499127       1.58363189      10.18479804       0.01755408       0.00195783       0.00099749
Ti       1.46711871       1.58414693      10.18453519      -0.01772565      -0.00156291      -0.00174687
Ti       2.93244636       3.62000185      11.51909823       0.00067836       0.01240684      -0.01179106
Ti       0.00387487       3.57853752      11.55483283      -0.00103445      -0.00166908       0.00143166
Ti       2.93591452       6.49855154      11.62461762       0.00007701      -0.00611054       0.00926535
Ti       0.00043237       6.48342038      11.58152517       0.00021077       0.01611637      -0.00426566
Ti       1.47963345       1.62891973      12.99017483      -0.00545401      -0.00000679       0.00331263
Ti       4.39274576       1.62915181      12.98998705       0.00587974       0.00143164       0.00241774
Ti       1.46864582       4.72784946      13.55952620      -0.00081760       0.00000908       0.00625230
Ti       4.40358573       4.72734702      13.55671931       0.00115850      -0.00155785       0.00403860
Ti       2.93663638       6.85798893      14.71427745       0.00029616      -0.00426870       0.00115969
Ti       5.87158090       6.85586908      14.70676965      -0.00002341      -0.00394302      -0.00843463
Ti       2.93603089       2.79729974      15.19543712       0.00050427       0.00535548       0.00609103
Ti       0.00012519       2.79544784      15.18284309      -0.00039873       0.00150686      -0.00166051
Ti       4.40701737       4.95956725      16.35946367       0.00002934      -0.00137772       0.00335436
Ti       1.46506077       4.95933334      16.36088431       0.00025937      -0.00136731       0.00459968
Ti       4.40486388       0.97181924      16.93545734       0.00087195       0.00223261       0.00502376
Ti       1.46732289       0.97207262      16.93548457      -0.00081812       0.00229737       0.00507210
Ti      -0.00013805       3.14371397      18.09683177       0.00040603       0.00200169      -0.00684441
Ti       2.93625683       3.14143166      18.09945476      -0.00031595       0.00182489      -0.00765181
Ti       5.87186487       5.96444268      18.60907178       0.00007591      -0.00135226      -0.00524548
Ti       2.93625532       5.97002650      18.60436958      -0.00017400      -0.00165719      -0.00590251
Ti       1.46422167       1.23699987      19.76134089       0.00060096      -0.00046651      -0.00425593
Ti       4.40787990       1.23698893      19.76131988      -0.00065569      -0.00060674      -0.00390363
Ti       1.46957624       4.15230490      20.33166797      -0.00108989       0.00241766      -0.00373619
Ti       4.40252844       4.15225586      20.33178645       0.00110415       0.00224954      -0.00354483
Ti       2.93598723       2.25533537      21.98112502       0.00013233      -0.00292146       0.00257190
Ti       0.00006575       2.25941602      21.96458314      -0.00006315      -0.00207707       0.00306229
Ti       2.93603418       6.31715441      21.52022752      -0.00001759       0.00134240      -0.00006737
Ti       0.00003808       6.29686777      21.54598915       0.00010296       0.00067219      -0.00163023
Ti       4.34329944       4.36294764      23.15585487      -0.00089933       0.00082974       0.00629136
Ti       1.52871786       4.36299524      23.15587947       0.00089210       0.00093312       0.00592234
Ti       4.38004763       0.56764487      23.69381269      -0.00316215       0.00129880       0.00318300
Ti       1.49202359       0.56761283      23.69387817       0.00310131       0.00132575       0.00323250
V        2.93601798       5.63001590      25.07777433      -0.00002523       0.00317059       0.00341633
Ti      -0.00004166       5.50610313      25.07908319       0.00026603      -0.00618243       0.00338917
Ti       2.93598682       2.70781174      25.08370575       0.00005324      -0.00020790       0.00160271
Ti       0.00003806       2.62635006      25.08097842      -0.00013984       0.00115937       0.00107404
Ti       4.38017425       0.56928803      26.47911162      -0.00283693       0.00019625      -0.00399165
Ti       1.49184722       0.56930899      26.47912518       0.00276584      -0.00010734      -0.00395607
Ti       4.34180452       4.38660634      27.00412606      -0.00043229       0.00122822      -0.00179530
Ti       1.53024236       4.38668545      27.00414202       0.00030083       0.00088146      -0.00197138
Ti      -0.00003931       2.27950213      28.18874995       0.00035746       0.00324748       0.00259208
Ti       2.93606126       2.27670041      28.17440234      -0.00034092       0.00326066       0.00002077
Ti       0.00004175       6.32042307      28.61692165      -0.00022803      -0.00436438       0.00321197
Ti       2.93597870       6.34384028      28.64527814       0.00025160      -0.00738594       0.00094109
Ti       1.46889047       4.16147633      29.84073611      -0.00292373       0.00715777      -0.01823972
Ti       4.40310669       4.16140860      29.84066509       0.00292384       0.00762371      -0.01805263
Ti       1.46441075       1.25443869      30.38018752      -0.00099242      -0.00071856      -0.00228484
Ti       4.40758419       1.25449441      30.38027493       0.00104200      -0.00102056      -0.00328998
Ti       2.93603788       5.98599902      31.58187426      -0.00058833       0.00987684      -0.01069001
Ti      -0.00006867       5.98099929      31.57762926       0.00054612       0.00824373      -0.01096026
Ti       2.93601794       3.11437842      32.02801824      -0.00001671      -0.01272545       0.00835589
Ti       0.00000779       3.11535472      32.03248835       0.00001477      -0.01220091       0.00658136
Ti       4.40466534       1.02482251      33.17012421       0.00034139      -0.00307807       0.00252792
Ti       1.46726612       1.02502162      33.17028603      -0.00013432      -0.00472878       0.00128967
Ti       4.40958538       4.95218722      33.76264677       0.00061084      -0.00217163       0.01652063
Ti       1.46237459       4.95214538      33.76280201      -0.00057262      -0.00139839       0.01536845
