52
Lattice="4.6568 0.0 0.0 0.0 7.770572 0.0 0.0 0.0 41.044546" Properties=species:S:1:pos:R:3:forces:R:3 job_name=Segregation-1sol-addvac-CSL7-Al-Al-30-d-2.82 top_level=Segregation-1sol-addvac solute=Al energy=-389.44887131 stress_kbar_3x3="_JSON [[-11.80023598, 0.71666472, 0.54364147], [0.7166647, -19.60779036, -0.22051689], [0.54364146, -0.2205169, -1.44434256]]" pbc="T T T"
Ti       2.31609662       7.64647429       8.96414222      -0.00125362      -0.00739694       0.00549490
Ti       4.64746484       5.52683873       9.33082673      -0.00252464       0.00213405       0.01068497
Ti       2.31529594       2.25661758      10.04102487      -0.00207101       0.00024489       0.01496730
Ti       4.64431283       0.58260915      10.34318662      -0.00226858      -0.00387439       0.01881043
Ti       2.31730119       5.14902714      10.66172641      -0.00311760      -0.00434680       0.00084883
Ti       4.64227812       3.44889381      11.13526412      -0.00207238       0.01046937       0.00910807
Ti       2.31491430       0.03281268      11.83264646      -0.00087140       0.00058009       0.00646016
Ti       4.64429443       6.05394398      12.08168191      -0.00126994      -0.00092114      -0.00886546
Ti       2.31041849       2.84659157      12.71991286      -0.00201806       0.00315536       0.00914712
Ti       4.63890876       1.16890383      13.11704753      -0.00139191       0.00077593       0.00489070
Ti       2.31309835       5.55703209      13.61742376      -0.00123418       0.00274548       0.00517105
Ti       4.63392667       3.90881838      14.08229862      -0.00176406       0.00145986       0.00180785
Ti       2.31299532       0.60225702      14.68772106      -0.00176375       0.00124854       0.00461568
Ti       4.64568467       6.67535654      14.90517437      -0.00146506       0.00012934       0.00711472
Ti       2.29647202       3.34035676      15.62555819      -0.00204798       0.00328556       0.00396077
Ti       4.65079315       1.70052499      15.99878833      -0.00228748      -0.00187143       0.00080534
Ti       2.30971630       6.11431282      16.44484403      -0.00105302      -0.00286340       0.00281883
Ti       4.59219469       4.46513209      16.94190026      -0.00244661       0.00307040       0.00250299
Ti       2.32833588       1.10786049      17.57321839       0.00025771      -0.00075515       0.00598243
Ti       4.64935605       7.22821534      17.70003624      -0.00377982       0.00298829       0.00301108
Ti       2.17712916       3.80005634      18.52385250      -0.00110638       0.00212617       0.00375101
Ti       0.11293834       2.18267509      18.94218570      -0.00084185       0.00414797       0.00182588
Ti       2.26364151       6.55812033      19.15624625      -0.00116676      -0.00204270       0.00465102
Ti       4.20653223       4.86317525      19.76733031      -0.00004255      -0.00126906      -0.00120855
Ti       2.71863225       1.58879080      20.50259169      -0.00041247       0.00256424      -0.00112843
Ti       0.45105426       7.64937546      20.53976328      -0.00045542       0.00192826       0.00134490
Ti       1.15373427       4.84474628      21.32145606       0.00087608       0.00228901      -0.00538845
Ti       3.11788350       6.53902503      21.85810024      -0.00035767      -0.00386582      -0.00767331
Ti       0.66612873       2.11701096      22.13316231       0.00353769      -0.00250024      -0.00177479
Ti       3.20165355       3.72879603      22.48612105      -0.00246451       0.00223297      -0.00058349
Al       0.75910360       7.16549303      23.27194316       0.00335207       0.00334691      -0.00128573
Ti       3.07246571       1.00177321      23.48271559       0.00076403       0.00160985       0.00008111
Ti       0.82372651       4.42255966      24.08354944       0.00077777       0.00228819      -0.00177733
Ti       3.07201579       6.13829790      24.54739280       0.00160791       0.00218712       0.00118553
Ti       0.78006334       1.65127627      25.09197798       0.00205987       0.00078237      -0.00312060
Ti       3.12506896       3.31768115      25.38596636       0.00155285      -0.00370334      -0.00263198
Ti       0.75418409       6.70444509      26.04206719       0.00103656      -0.00254206      -0.00356958
Ti       3.09247347       0.58469351      26.45647962       0.00107971      -0.00037021      -0.00137750
Ti       0.78354903       3.91618479      26.97190423       0.00126669      -0.00450937      -0.00701996
Ti       3.10515674       5.60784343      27.32309100       0.00194232      -0.00060077      -0.01048706
Ti       0.76282247       1.14145989      28.00649677       0.00160879      -0.00006229      -0.00874263
Ti       3.09166055       2.84058487      28.30629050       0.00183309      -0.00239599      -0.00867129
Ti       0.77109705       6.15554565      28.85744795       0.00186622      -0.00251265      -0.00208934
Ti       3.09614598       0.08771465      29.37283238       0.00133664      -0.00103393      -0.01172833
Ti       0.76226959       3.39971341      29.85537459       0.00208510       0.00456487      -0.00260791
Ti       3.09261127       5.07260153      30.15910242       0.00278339       0.00325529      -0.01883572
Ti       0.76689759       0.52660530      30.77819638       0.00220105      -0.00247178      -0.00736050
Ti       3.08860004       2.41245009      31.05057182       0.00324084       0.00104532      -0.00476153
Ti       0.76175622       5.55813623      31.61726503       0.00247605      -0.00116259      -0.00846840
Ti       3.08814588       7.08150227      32.12676470       0.00208076      -0.00262644      -0.00196540
Ti       4.64251725       2.30005452       8.55568258      -0.00016106       0.00188462       0.00325219
Ti       3.08978269       4.55965981      32.77989219       0.00208658      -0.01284185      -0.00117158
