100
Lattice="4.4265 -2.555641 0.0 3.767997 6.526363 -0.031456 0.0 0.0 61.781652" Properties=species:S:1:pos:R:3:forces:R:3 job_name=Segregation-1sol-addvac-CSL13-Al-Al-55-d-2.65 top_level=Segregation-1sol-addvac solute=Al energy=-761.64768854 stress_kbar_3x3="_JSON [[-27.04767551, -2.64377108, 1.01526513], [-2.64377109, -29.55390417, 0.95425851], [1.01526513, 0.95425851, -2.31035553]]" pbc="T T T"
Ti       5.90975744       1.77259392       8.76420763      -0.00690370      -0.01010681       0.00303955
Ti       2.59239683      -0.66187230       8.78052430      -0.00618501      -0.01123184       0.00120075
Ti       4.32493553       4.04338276       9.73222927      -0.00320325      -0.00354826      -0.00063317
Ti       5.34987314      -0.89936563       9.74832642      -0.00008435      -0.00400354      -0.00056032
Ti       7.03575343       3.77968223      10.38235520      -0.00627543      -0.00081311      -0.00163342
Ti       3.76656529       1.31723493      10.39851537       0.00347516      -0.00361053      -0.00123080
Ti       1.73669711      -0.49390515      11.33267489      -0.00087936      -0.00809858      -0.00317046
Ti       6.48226843       1.11729673      11.31740373      -0.00820578      -0.00333835      -0.00558161
Ti       4.47386063      -0.71387281      12.32890620      -0.00037543      -0.00912015       0.00266267
Ti       4.92190261       3.37947776      12.31422581      -0.00679506      -0.00440538       0.00140484
Ti       2.82940886       1.53463046      13.12323666      -0.00465918      -0.00547875       0.01859178
Ti       3.26585984       5.63436364      13.10835498      -0.00205207      -0.00574566       0.01807372
Ti       5.68105656       1.25253266      14.09477224      -0.00532927      -0.00707252       0.01453667
Ti       2.25125170      -1.11949746      14.11126544      -0.00311255      -0.00757979       0.01494763
Ti       0.70642526       1.11553266      14.99326416      -0.00138592      -0.00689705       0.00069298
Ti       3.95977717       3.58515241      14.97798342      -0.00593649      -0.00401761       0.00067633
Ti       6.80858558       3.25503800      15.78207196      -0.00289960      -0.00536604      -0.00119854
Ti       3.42241888       0.85938004      15.79769956      -0.00372852      -0.00520048      -0.00138926
Ti       5.18973118       5.56247208      16.85146920      -0.00318089      -0.00354805      -0.00163523
Ti       6.22481086       0.61262964      16.86896385      -0.00184409      -0.00333634      -0.00127753
Ti       4.13018949      -1.20971363      17.62181936      -0.00291134      -0.00541727      -0.00366540
Ti       4.66144433       2.83913463      17.60837935      -0.00349169      -0.00468756      -0.00323768
Ti       2.64903709       0.99461079      18.51175871       0.00093598      -0.00648525      -0.00114292
Ti       7.30866047       2.65366516      18.49712464      -0.00580311      -0.00201099      -0.00356544
Ti       5.80420225       4.94119458      19.66626614      -0.00148993      -0.00241320       0.00344356
Ti       5.37453289       0.83650773      19.68317114      -0.00233336      -0.00192307       0.00363686
Ti       0.41461955       0.63296422      20.21250924      -0.00177411      -0.00352824      -0.00561117
Ti       3.68013161       3.09635479      20.19727887      -0.00257092      -0.00285936      -0.00636205
Ti       2.98377577       0.59080544      21.26502067      -0.00329311      -0.00001834      -0.00149255
Ti       6.78282144       2.74772003      21.24798929       0.00158572      -0.00200176       0.00130896
Ti       4.95764745       5.28394955      22.51996221       0.00098468       0.00163671       0.00655443
Ti       1.66557516       2.83496655      22.53858548       0.00004187       0.00316720       0.00614993
Ti       3.94807378      -1.57297664      22.81510401      -0.00029665      -0.00014824      -0.00154243
Ti       4.42623399       2.50146889      22.80269144       0.00155977       0.00075163      -0.00095253
Ti       2.73857801       0.63382287      24.03642361       0.00292307       0.00230444       0.00646192
Ti       6.94060774       2.56094024      24.02206259      -0.00034302       0.00436443       0.00478723
Ti       5.73506529       4.77371070      25.36636939       0.00020688       0.00117356       0.00337091
Ti       5.25299109       0.70368257      25.38014999      -0.00052996       0.00373774       0.00582106
Ti       3.58625744       2.91696337      25.44968762       0.00237659       0.00545074       0.00261945
Ti       0.29607257       0.47390185      25.46311964       0.00501841       0.00525653      -0.00190760
Ti       6.87479946       2.56024378      26.78042877       0.00041569       0.00081883      -0.00061140
Ti       2.76492419       0.56677091      26.79819735       0.00338058       0.00748532       0.00030600
Ti       3.92023168      -1.63769633      28.10798804       0.00024068       0.00963846       0.00311849
Ti       4.91424747       5.21253793      28.21544725       0.00706517       0.00386193       0.00409559
Ti       4.38384039       2.42054482      28.10758253       0.00292193       0.00363350      -0.00138715
Ti       1.63294206       2.77185017      28.21229495       0.00111634       0.00511142       0.00336333
Ti       2.81493467       0.51192277      29.58476074       0.00566190       0.00501416       0.00336482
Ti       6.78126966       2.62117484      29.55787102      -0.00062751       0.00860122       0.00226535
Ti       3.45282602       2.93844918      30.65424235       0.00454007       0.00565480       0.00433619
Ti       4.71910955      -2.01803881      30.72870912       0.00576667       0.00991687      -0.00065106
Ti       5.22238344       0.80438195      31.02575455       0.00006622       0.00670335       0.00067635
Ti       5.64584528       4.73413528      31.14672099       0.00337273       0.00344464       0.00184809
Ti       2.58324715       0.74597941      32.35761447       0.00496902       0.00999759      -0.00225274
Ti       7.16733445       2.49568513      32.36966295       0.00428249       0.00495930       0.00040603
Al       4.46134355       2.71262607      33.16114457       0.00158026       0.00770201       0.00429145
Ti       4.02003728      -1.43036012      33.28393420      -0.00010355       0.00797927      -0.00212765
Ti       6.01685083       0.43503630      33.92990772       0.00413278       0.01019699      -0.00257296
Ti       5.12415577       5.35172652      34.01542002       0.00597723       0.00422730       0.00135862
Ti       3.39736124       0.69329186      35.04560477       0.00614645       0.00867543      -0.00436902
Ti       6.52593059       3.05005902      35.04417077      -0.00118220       0.01238186      -0.00466250
Ti       3.80373823       3.48296967      35.75138623       0.00834097       0.00096609      -0.00822073
Ti       0.56274022       0.95926434      35.82735446       0.00139267       0.00674398      -0.00313401
Ti       5.92617679       5.16364333      36.78774118       0.00604181       0.00584959      -0.00240489
Ti       5.64410201       1.06544102      36.89299284       0.00103186       0.00810176       0.00231776
Ti       3.27122898       5.50052669      37.60714629       0.00401459       0.01115579       0.00236167
Ti       2.67628142       1.32749252      37.66242759       0.00364331       0.00562406      -0.00115753
Ti       4.69319503       3.24954852      38.44594877       0.00045101       0.00851717      -0.00163042
Ti       4.45092969      -0.93593360      38.49592805       0.00700368       0.00415867      -0.00522471
Ti       1.61950588      -0.73165289      39.70711909       0.00157915       0.00465472       0.00123142
Ti       2.01763165       3.36775274      39.69822023       0.00483475       0.00341867       0.00032228
Ti       3.73381688       1.15235345      40.19368971      -0.00005150       0.00554902      -0.00261310
Ti       6.94949342       3.56508235      40.17626459       0.00353903       0.00298178      -0.00690150
Ti       5.00435668      -1.08738558      41.23885481       0.00027142       0.00201293       0.00174428
Ti       4.41995273       3.61894208      41.24257620       0.00336370      -0.00020132       0.00086272
Ti       2.42862899      -1.09612319      42.57056755       0.00033516      -0.00241137       0.00326556
Ti       5.70599263       1.36658961      42.57331467      -0.00065704      -0.00289416       0.00353527
Ti       2.94333760       1.70165734      42.76893184       0.00098297       0.00179447      -0.00203002
Ti       3.43709689       5.77833271      42.75739098       0.00088401       0.00236150      -0.00263794
Ti       4.60332919       3.58171350      44.02184331      -0.00071423      -0.00137956      -0.00061655
Ti       4.88738723      -0.92875739      44.03297780       0.00150931      -0.00052195      -0.00077153
Ti       1.61738819      -0.56810150      45.44074985       0.00129702      -0.00176892      -0.00307644
Ti       2.12269615       3.48884342      45.42281796      -0.00155516      -0.00050776      -0.00338886
Ti       7.06230201       3.73676051      45.37174964      -0.00236585      -0.00227512      -0.00264561
Ti       3.78859362       1.27597474      45.38920383       0.00121452      -0.00447092      -0.00455254
Ti       4.64350268       3.60459079      46.80225570      -0.00074063       0.00000667      -0.00998467
Ti       4.87889892      -0.88458729      46.81628561       0.00091428      -0.00195352      -0.00980607
Ti       5.76158926       1.41848992      48.27570727       0.00254301      -0.00865496      -0.00095205
Ti       2.42465058      -1.00331869      48.29266464      -0.00671583      -0.00252375      -0.00144296
Ti       2.99150494       1.74248255      48.00379048      -0.00607425      -0.00424761      -0.00532231
Ti       3.43138319       5.83914156      47.98722861       0.00156924      -0.00740805      -0.00681209
Ti       5.06139835      -1.06581732      49.57359309       0.00091399      -0.00263446       0.00145665
Ti       4.38820652       3.67261580      49.55727828      -0.00075363      -0.00245078       0.00149031
Ti       7.00626530       3.55628381      50.60997431      -0.00390156      -0.00842045       0.01637832
Ti       3.64800991       1.14320646      50.62589777      -0.00531857      -0.00644243       0.01703831
Ti       1.54418350      -0.66441346      51.28734799      -0.00160013      -0.00414528       0.00234318
Ti       2.06597844       3.38744204      51.26980746      -0.00107916      -0.00686831       0.00255492
Ti       4.43974359      -0.96959485      52.20225498      -0.00349193      -0.00336711      -0.01050736
Ti       4.77855459       3.18585250      52.18629463       0.00145805      -0.00689253      -0.01145798
Ti       2.64452983       1.35267843      53.06838449      -0.00026930      -0.00693332      -0.01709353
Ti       3.26035133       5.34853707      53.05320597      -0.00479862      -0.00435836      -0.01550418
