64
Lattice="5.088765 0.0 0.0 0.0 9.739025 0.0 0.0 0.0 38.303587" Properties=species:S:1:pos:R:3:forces:R:3 job_name=Segregation-1sol-addvac-T2-V-V-48-d-5.58 top_level=Segregation-1sol-addvac solute=V energy=-484.43050252 stress_kbar_3x3="_JSON [[-11.34136732, 1.06939014, 0.52226976], [1.06939012, -12.940272, 0.94842804], [0.52226978, 0.94842803, -0.4248534]]" pbc="T T T"
Ti       0.22865867       4.58723569       8.40078375      -0.00989447      -0.01017486      -0.01386828
Ti       1.01595587       1.82993114       8.90432408      -0.00284781       0.00181247      -0.00477383
Ti       3.41621764       6.56521443       8.97314930       0.00735210      -0.00943047      -0.00499439
Ti       0.37073212       8.72215153       9.53805933      -0.00504433       0.01362595      -0.00729157
Ti       2.65889123       3.93267084       9.53074548       0.00206519      -0.00680862      -0.00710785
Ti       3.69777307       1.33214635      10.07336266      -0.00229835       0.00336100      -0.00419782
Ti       1.15745505       6.20303163      10.33374010      -0.00422410       0.00320793      -0.00041312
Ti       2.75963204       8.45510321      10.86090710       0.00916434      -0.00370478       0.00402375
Ti       0.16138463       3.55994307      10.88667721      -0.00461978      -0.00544984       0.00639950
Ti       3.62676063       5.77685677      11.56883014      -0.00409925      -0.00406441       0.01035413
Ti       1.01584120       0.92259898      11.44667390       0.00002084       0.00366282       0.00281789
Ti       0.26424752       8.02222278      12.24762098      -0.00595679      -0.00224909       0.00949496
Ti       2.76354009       3.06757368      12.22128756       0.00083100      -0.00496479       0.00775987
Ti       1.06131193       5.29155190      12.99920540       0.00274415      -0.00526140       0.00541292
Ti       3.58566003       0.43389093      12.91409291      -0.00064403       0.00080932       0.00117795
Ti       0.21371134       2.62495413      13.66861904      -0.00411279      -0.00210125      -0.00410929
Ti       2.76949394       7.50191269      13.64173620      -0.00160703      -0.00421588      -0.00166646
Ti       3.63748959       4.84594129      14.34853968      -0.00262365      -0.00336173      -0.00673463
Ti       1.09602476       9.73504271      14.32764794       0.00037469      -0.00304327      -0.00480758
Ti       2.73972066       2.19751941      15.00842915       0.00017950      -0.00182950      -0.00724306
Ti       0.20265673       7.07624065      15.01452465      -0.00118774      -0.00553008      -0.00302338
Ti       1.10416695       4.44914887      15.71790363      -0.00254904       0.00134876       0.00025760
Ti       3.65406740       9.32620881      15.67475849      -0.00379955      -0.00390366      -0.00199103
Ti       0.24911910       1.78051877      16.42264670       0.00035782      -0.00174578       0.00022811
Ti       2.80096042       6.65558719      16.42035074       0.00047032      -0.00426475       0.00193327
Ti       1.04088045       8.78901596      17.04099182      -0.00097683      -0.01012873       0.00456408
Ti       3.58224002       3.90609381      17.06195740      -0.00049021      -0.00233103       0.00383054
Ti       2.66683257       1.15187764      17.82734682      -0.00140388      -0.00817545       0.00949431
Ti       0.12513925       6.02138498      17.84073941      -0.00295863      -0.00899664       0.00899692
Ti       3.85226713       8.26223570      18.53666031       0.00207794      -0.00851152       0.00473612
Ti       1.29978796       3.38985829      18.56323850       0.00123317      -0.00125676       0.00738668
Ti       0.03221440       0.91577933      19.11819143       0.00016301      -0.00157622       0.00184956
Ti       2.58323238       5.79401332      19.11887904      -0.00126766      -0.00198199      -0.00299112
Ti       3.84610094       3.46689522      19.79382949       0.00177081       0.00021742      -0.00077052
Ti       1.31250073       8.33047074      19.77446820       0.00099591      -0.00203053      -0.00279745
Ti       2.32640779       1.32940301      20.57422218       0.00020529       0.00621168      -0.00118431
Ti       4.87218861       6.19910210      20.59062628      -0.00022043       0.00459092      -0.00791121
Ti       1.48519354       4.06893206      21.25006926       0.00068561       0.00703004      -0.00972541
Ti       4.03741047       8.90056518      21.22402888       0.00166760       0.00940935      -0.00732690
Ti       4.88453274       1.86298259      21.92047106       0.00187843       0.00730788      -0.00398582
Ti       2.35181783       6.75206876      21.95645678      -0.00098431       0.00585833      -0.00810262
Ti       3.98373607       4.47673805      22.63872404       0.00304106       0.00262857      -0.00493414
Ti       1.42807451       9.33665291      22.62125066       0.00051437       0.00792169      -0.00188356
Ti       2.33047577       2.26956493      23.28669152      -0.00142153       0.00339233      -0.00366957
Ti       4.86976248       7.12588934      23.30756320       0.00132690       0.00634110       0.00196937
Ti       3.92624186       9.73337329      23.97328116       0.00345279       0.00305398       0.00515333
Ti       1.43761257       4.95433863      24.01884398       0.00014979       0.00028455      -0.00102684
Ti       4.85244420       2.67075978      24.69238657      -0.00056341      -0.00065825       0.00320718
V        2.29581312       7.54646014      24.62354027       0.00082659       0.00393731       0.00150676
Ti       1.46455847       0.43730154      25.27462881      -0.00544741       0.00094461      -0.00395005
Ti       3.96486004       5.36300767      25.38156256       0.00371408       0.00696871      -0.00133691
Ti       4.93552576       7.92837865      26.04461928       0.00041145       0.00522469      -0.00700846
Ti       2.29146436       3.16084201      26.06376694       0.00495835       0.00107404      -0.00539074
Ti       1.51978702       5.78088638      26.82036376      -0.00041122       0.00536424       0.00134595
Ti       3.99424760       0.91213629      26.74236390       0.00775025       0.00134586      -0.00328423
Ti       2.42927150       8.38580822      27.30350808       0.00441683       0.00124645      -0.00016811
Ti       4.87291394       3.59131001      27.44010266      -0.00587182       0.00022060       0.00110493
Ti       3.92090943       6.20555802      28.23645089       0.00235550       0.00396399       0.00209780
Ti       1.38415330       1.32332764      27.94537688       0.00083807       0.00253650       0.00640672
Ti       5.01812585       8.79320817      28.71346134      -0.00212293      -0.00244855       0.00675616
Ti       2.17098914       3.84299656      28.75720714       0.00119315       0.01098608       0.00585481
Ti       1.51661001       6.69839217      29.35041448       0.00534122       0.00147462       0.00795171
Ti       4.23516423       1.68087657      29.32252410       0.00095460      -0.00024583       0.00342831
Ti       2.36263708       9.41600164      29.81935877       0.00416624      -0.00691813       0.01216908
