64
Lattice="5.872 0.0 0.0 0.0 6.890708 0.0 0.0 0.0 43.394398" Properties=species:S:1:pos:R:3:forces:R:3 job_name=Segregation-1sol-addvac-T1g-V-V-37-d-1.90 top_level=Segregation-1sol-addvac solute=V energy=-486.92482298 stress_kbar_3x3="_JSON [[-7.33835845, -0.00389264, 0.00363317], [-0.00389264, -17.32257966, -0.12137021], [0.00363314, -0.12137021, -4.3209335]]" pbc="T T T"
Ti      -0.00002627       3.39339875       8.89834119       0.00009515       0.00614701      -0.00337948
Ti       2.93592300       3.39362293       8.89916165       0.00003135       0.00565662      -0.00240299
Ti       0.00000953       6.48472497       9.29360571      -0.00016525      -0.00340004       0.01673814
Ti       2.93593794       6.48421498       9.29682306       0.00015822      -0.00345795       0.01677408
Ti       4.40501370       1.74553191      10.48861500      -0.00057145       0.00399243       0.00447842
Ti       1.46689275       1.74551975      10.48865644       0.00047483       0.00419361       0.00425209
Ti       1.46804901       4.67948010      10.84566680       0.00041323       0.00133119      -0.00596412
Ti       4.40390214       4.67952680      10.84557932      -0.00047077       0.00144265      -0.00575006
Ti       5.87193657       6.77567303      12.11131905       0.00000606      -0.00647402      -0.01623068
Ti       2.93596789       6.77470682      12.11476111       0.00014175      -0.00491850      -0.01590652
Ti       2.93592812       2.83690388      12.65500119       0.00001520      -0.00539367      -0.00569419
Ti       0.00000354       2.83668982      12.65416433      -0.00002880      -0.00349274      -0.00246966
Ti       1.46643170       4.99200815      13.80093477      -0.00206870      -0.00001454      -0.00226127
Ti       4.40549755       4.99203175      13.80082073       0.00199675      -0.00024144      -0.00188914
Ti       4.40593415       0.93484091      14.34702065      -0.00171021       0.00108086       0.00356838
Ti       1.46604785       0.93482346      14.34716045       0.00141001       0.00122699       0.00307727
Ti       2.93602609       3.08786237      15.49384513       0.00017812       0.00147962       0.00169965
Ti       5.87190019       3.09175581      15.49108092      -0.00007054       0.00265060      -0.00013665
Ti       2.93598008       5.99286327      16.06116529      -0.00003568       0.00233376       0.00576495
Ti       5.87195060       5.99271421      16.07594931       0.00015906      -0.00158289       0.00047931
Ti       1.46439199       1.26563474      17.24379076       0.00168027      -0.00166294      -0.00023413
Ti       4.40756801       1.26577809      17.24361285      -0.00175574      -0.00143293      -0.00057153
Ti       4.40935188       4.10830686      17.75552169      -0.00273996       0.00352348      -0.00484005
Ti       1.46256365       4.10814809      17.75535413       0.00264975       0.00419303      -0.00457955
Ti       2.93564283       6.23173600      18.88602341      -0.00010012      -0.00432372      -0.01502919
Ti       0.00019907       6.23977918      18.90724579       0.00027997       0.00118995      -0.00975517
Ti       2.93658424       2.35460826      19.46129627       0.00014465       0.00081020      -0.01485072
Ti       5.87143274       2.36741860      19.48475361      -0.00003739      -0.00196290      -0.00242443
Ti       1.48150221       4.48810027      20.80025162       0.00021907      -0.00040637      -0.00045344
Ti       4.39069418       4.48808626      20.80111036      -0.00040094      -0.00047201      -0.00066189
Ti       1.49133275       0.42739984      21.06088186      -0.00291345      -0.00072084       0.00152137
Ti       4.38010280       0.42585713      21.06178658       0.00264688       0.00028755       0.00148212
Ti       2.93720050       2.45880003      22.22291966       0.00002724       0.00447743       0.01444771
Ti       5.87080242       2.47181461      22.26045768       0.00009464      -0.00085170      -0.00235513
V        2.93174375       5.92184128      22.81924256      -0.00005159      -0.00342793       0.00857774
Ti       0.00365042       5.91836637      22.87917742       0.00024370      -0.00160662       0.01182100
Ti       4.35131809       3.93766192      24.04904743      -0.00153613      -0.00463133       0.00314487
Ti       1.52105622       3.93552274      24.04963277       0.00112500      -0.00460218       0.00305865
Ti       1.48140499       1.03577782      24.30549136       0.00035031       0.00091085       0.00765052
Ti       4.39061438       1.03505912      24.30544817      -0.00039396       0.00093831       0.00765829
Ti       2.93568643       5.80826961      25.59818742      -0.00012320       0.00441736       0.01477470
Ti       0.00054128       5.83104578      25.65789215       0.00000182       0.00184251       0.01247101
Ti       5.87155047       2.80981010      26.17305305       0.00016705      -0.00058127       0.00055905
Ti       2.93687730       2.82476902      26.20093736      -0.00023063      -0.00116925      -0.00059651
Ti       4.40198070       0.69969577      27.33729092       0.00071494       0.00216617      -0.01003366
Ti       1.47028153       0.69991198      27.33733092      -0.00060380       0.00218122      -0.00986192
Ti       1.47487557       4.72971988      27.85586303      -0.00041949      -0.00209939      -0.01497893
Ti       4.39733339       4.72983042      27.85597036       0.00069035      -0.00163280      -0.01464583
Ti       0.00007063       2.57463506      29.02329227      -0.00003830      -0.00078135      -0.01666231
Ti       2.93604781       2.57465841      29.04340730       0.00023578       0.00006352      -0.01474893
Ti       0.00010356       6.59016792      29.59463742       0.00016309       0.00455642      -0.00290291
Ti       2.93608556       6.58967647      29.60404278      -0.00019623       0.00538263      -0.00312532
Ti       4.40727865       4.45328626      30.73861896      -0.00102719      -0.00052989       0.01351869
Ti       1.46484529       4.45321938      30.73850873       0.00099592      -0.00059524       0.01331507
Ti       1.46277491       1.51608448      31.25363009       0.00057407      -0.00730778       0.01215728
Ti       4.40941953       1.51618405      31.25351813      -0.00060344      -0.00779800       0.01279198
Ti       0.00014878       6.31353493      32.52760097      -0.00069686       0.00331717      -0.01409085
Ti       2.93598793       6.31623180      32.53201437       0.00070934       0.00507985      -0.01337319
Ti       0.00001358       3.36613153      32.90336277      -0.00009409      -0.00344154      -0.00137662
Ti       2.93605867       3.36066666      32.90127048       0.00022380      -0.00244784       0.00037229
Ti       4.40392853       1.22690447      34.08891281      -0.00021146      -0.00256556       0.00109338
Ti       1.46814139       1.22703720      34.08895903       0.00034479      -0.00295274       0.00147625
Ti       1.46892521       5.02488160      34.47481305       0.00034353       0.00619459       0.01865967
Ti       4.40321423       5.02487820      34.47494693      -0.00041031       0.00591233       0.01685303
