64
Lattice="5.871999 0.0 0.0 0.0 6.890708 0.0 0.0 0.0 43.401158" Properties=species:S:1:pos:R:3:forces:R:3 job_name=Segregation-1sol-addvac-T1m-Al-Al-42-d-3.62 top_level=Segregation-1sol-addvac solute=Al energy=-482.90112313 stress_kbar_3x3="_JSON [[-6.20144825, 0.00024937, 0.00040005], [0.00024934, -15.88576281, 0.3793772], [0.00040005, 0.37937718, -2.65896387]]" pbc="T T T"
Ti       1.46786436       4.99773852       8.90313078       0.00000861      -0.00036492       0.01183027
Ti       4.40416497       4.99769606       8.90312432      -0.00006230      -0.00025066       0.01132206
Ti       1.46691822       1.20122074       9.30168650      -0.00013168      -0.00545672       0.01560023
Ti       4.40507021       1.20112050       9.30164147       0.00010988      -0.00505243       0.01541391
Ti       5.87189225       3.35187797      10.49784898       0.00061371      -0.00984679       0.01278515
Ti       2.93616367       3.35349876      10.49907718      -0.00074110      -0.00991458       0.01269078
Ti       5.87197643       6.28372643      10.84848707       0.00033545       0.00985089       0.00338551
Ti       2.93598702       6.28511639      10.84832888      -0.00025544       0.00946668       0.00362496
Ti       4.40376097       1.48357202      12.11393828      -0.00026820       0.00173498       0.00363710
Ti       1.46829302       1.48348735      12.11388900       0.00032185       0.00206171       0.00368723
Ti       4.40306573       4.44863260      12.65986784      -0.00009569      -0.00515378       0.00511471
Ti       1.46890404       4.44856378      12.65994311       0.00021728      -0.00499378       0.00468406
Ti       2.93600094       6.59730028      13.80850860      -0.00007562      -0.00021527       0.00367520
Ti       0.00001707       6.59441035      13.80852769       0.00014940      -0.00065706       0.00415456
Ti       0.00004468       2.54048978      14.33498612       0.00001571       0.00052135       0.00183586
Ti       2.93599338       2.54025222      14.34246655       0.00002544       0.00028754       0.00219389
Ti       1.46660710       4.67720432      15.48798694       0.00022138      -0.00297559       0.00015696
Ti       4.40543293       4.67716532      15.48788613      -0.00036098      -0.00286665       0.00061791
Ti       1.47225325       0.72890987      16.06305120       0.00049655       0.00272253       0.00073558
Ti       4.39981876       0.72893135      16.06302700      -0.00057172       0.00270742       0.00075578
Ti       0.00002023       2.86934211      17.26279150      -0.00003076      -0.00205942      -0.00343418
Ti       2.93602856       2.87498150      17.28291624       0.00006425      -0.00202584      -0.00358405
Ti      -0.00000633       5.71331409      17.69924340      -0.00000220       0.00283034      -0.00255831
Ti       2.93603534       5.71505272      17.71546365       0.00000004       0.00212137      -0.00165641
Ti       4.39647328       0.90896066      18.86598660      -0.00061199      -0.00505859      -0.00645706
Ti       1.47553289       0.90897991      18.86602336       0.00058804      -0.00504592      -0.00631871
Ti       1.44069355       4.07655950      19.46610938       0.00058761       0.00656980      -0.00517327
Ti       4.43134121       4.07655891      19.46608150      -0.00059790       0.00660064      -0.00522082
Ti       0.00001096       6.15731428      20.83263539       0.00006291       0.00001453      -0.00208994
Ti       2.93602802       2.13409813      20.86284734      -0.00007442      -0.00005139      -0.00294977
Ti      -0.00001358       2.11172524      20.88782834       0.00009602      -0.00266622      -0.00262438
Ti       2.93601107       6.14422094      20.90451033      -0.00001896      -0.00128906      -0.00357843
Ti       1.42977736       4.11512311      22.28680326      -0.00056507       0.00411564      -0.00322876
Ti       4.44228798       4.11515221      22.28680928       0.00051503       0.00413522      -0.00307756
Ti       4.34524084       0.92330508      22.87188960       0.00228229      -0.00541168       0.00242702
Ti       1.52677148       0.92331108      22.87182903      -0.00232409      -0.00535874       0.00253386
Ti       0.00004926       5.79240274      23.98487396       0.00000971       0.00055688      -0.00055365
Ti       2.93598072       5.66731346      24.01603066      -0.00003074       0.00174466      -0.00136110
Al       2.93599161       2.88177949      24.41834115       0.00011367      -0.00043676      -0.00300332
Ti       0.00000911       2.92805596      24.47283876       0.00006639       0.00170562       0.00243073
Ti       4.38163035       0.75310910      25.64250356       0.00108163       0.00263094       0.00240870
Ti       1.49042233       0.75306092      25.64244236      -0.00113672       0.00271487       0.00233440
Ti       1.45270760       4.67661189      26.18793951      -0.00119425      -0.00415632       0.00224100
Ti       4.41927968       4.67664846      26.18792853       0.00121751      -0.00420723       0.00222782
Ti       2.93605235       2.52839530      27.33882684      -0.00015280       0.00200510      -0.00073741
Ti       5.87199336       2.52723777      27.40812419       0.00018706       0.00367230      -0.00048347
Ti       2.93600829       6.57916316      27.83816254      -0.00006579      -0.00143429       0.00023809
Ti       0.00000424       6.56547817      27.86285983       0.00008077      -0.00025900      -0.00200617
Ti       1.48045698       4.40929721      29.03385337      -0.00026325       0.00535084      -0.01010207
Ti       4.39159069       4.40920369      29.03383290       0.00030834       0.00567072      -0.00996044
Ti       1.47884405       1.53213008      29.60763403      -0.00053794      -0.00331369      -0.01168774
Ti       4.39317815       1.53207466      29.60767996       0.00047709      -0.00323744      -0.01188665
Ti       2.93608118       6.28115078      30.74272959      -0.00023044       0.00070329      -0.01222205
Ti      -0.00000442       6.27796381      30.75476665       0.00015120       0.00037803      -0.01074799
Ti      -0.00000484       3.34591272      31.25468369       0.00017166      -0.00144652      -0.00391171
Ti       2.93605689       3.34900225      31.26704130      -0.00016486      -0.00233373      -0.00487138
Ti       1.46810433       1.25905648      32.53475742       0.00023701       0.00002586       0.00028393
Ti       4.40394889       1.25908612      32.53481648      -0.00025338      -0.00007084       0.00028243
Ti       4.40338843       5.19561927      32.91392863      -0.00028026       0.00361204      -0.00496741
Ti       1.46864840       5.19564363      32.91389113       0.00016360       0.00364421      -0.00488502
Ti       0.00000474       6.85702621      34.48335859       0.00018830       0.00928339       0.00137391
Ti      -0.00002206       3.05293370      34.09178019       0.00019376      -0.00559643       0.00393363
Ti       2.93604128       6.85810473      34.48518754      -0.00014111       0.00969879       0.00132711
Ti       2.93603257       3.05462592      34.09907079      -0.00011952      -0.00593086       0.00339491
