100
Lattice="4.4265 -2.555641 0.0 3.767997 6.526363 -0.031456 0.0 0.0 61.781652" Properties=species:S:1:pos:R:3:forces:R:3 job_name=Segregation-1sol-addvac-CSL13-Al-Al-59-d-4.19 top_level=Segregation-1sol-addvac solute=Al energy=-761.51277425 stress_kbar_3x3="_JSON [[-25.89570566, -1.62105142, 0.13694776], [-1.62105141, -30.68330153, 1.34630563], [0.13694775, 1.34630566, -1.67561916]]" pbc="T T T"
Ti       2.62277749      -0.62286991       8.79011959      -0.00168810      -0.00497088      -0.00894480
Ti       5.94376703       1.81191004       8.77462914      -0.00166726      -0.00512026      -0.00751697
Ti       5.38357000      -0.85777316       9.76068395      -0.00269162      -0.00935873       0.00084713
Ti       4.36036934       4.08361705       9.74524771      -0.00473583      -0.00650383       0.00219607
Ti       3.80106525       1.35798365      10.41230581      -0.00414687      -0.00556737       0.01123051
Ti       7.07121927       3.82182735      10.39718134      -0.00230292      -0.00609388       0.01119695
Ti       6.51573795       1.16074526      11.32781897      -0.00525097      -0.00283918       0.01050441
Ti       1.77576659      -0.45321805      11.34392340       0.00034883      -0.00691555       0.01030945
Ti       4.95472433       3.42582012      12.33113652       0.00043944      -0.00644568       0.00741085
Ti       4.52052093      -0.67223974      12.34792536      -0.00451827      -0.00458416       0.00739327
Ti       3.30721941       5.68036701      13.12626001      -0.00262149      -0.00657054       0.00273276
Ti       2.86891928       1.58354763      13.14290566      -0.00240140      -0.00569547       0.00281876
Ti       2.29279558      -1.07210687      14.11776149      -0.00324079      -0.00503221       0.00552111
Ti       5.72545476       1.29606583      14.10312097      -0.00148026      -0.00515648       0.00569320
Ti       0.74627162       1.16263618      15.01548090      -0.00185959      -0.00647970       0.00462939
Ti       4.01136150       3.63283062      14.99961229      -0.00345742      -0.00498059       0.00415811
Ti       3.47323030       0.90391927      15.81125131      -0.00345768      -0.00449565       0.00426015
Ti       6.84746100       3.30720327      15.79618637      -0.00134397      -0.00701622       0.00429277
Ti       6.27190427       0.66089192      16.86221731      -0.00066809      -0.00608625       0.00686669
Ti       5.24337606       5.60426420      16.84820175      -0.00257306      -0.00416348       0.00688082
Ti       4.71287415       2.88535596      17.63683995      -0.00224366      -0.00693706      -0.00045942
Ti       4.18457415      -1.15400650      17.65418965      -0.00356585      -0.00477468      -0.00053111
Ti       7.37926212       2.68608527      18.50389086      -0.00571227      -0.00221012       0.00053774
Ti       2.67555713       1.05006642      18.52000546       0.00151999      -0.00750656       0.00018924
Ti       5.84849102       4.97604707      19.64719295      -0.00027379      -0.00384379      -0.00007184
Ti       5.43398277       0.86487944      19.66422293      -0.00095680      -0.00303625       0.00043256
Ti       0.47109980       0.66921583      20.24913401      -0.00310833      -0.00439452      -0.00957046
Ti       3.73507846       3.14061146      20.23510960      -0.00095108      -0.00445671      -0.00974140
Ti       3.06423232       0.59416676      21.25954837      -0.00441277       0.00155861      -0.00472951
Ti       6.80092941       2.78829145      21.24612342       0.00455307      -0.00382597      -0.00486344
Ti       5.01333774       5.29612456      22.49451701      -0.00005752       0.00012096       0.00165161
Ti       1.70931068       2.85001588      22.50787542       0.00246986       0.00088596       0.00154997
Ti       4.47976421       2.51869510      22.83539751       0.00103614       0.00027711      -0.00107584
Ti       3.99890830      -1.55258503      22.85163991       0.00122695       0.00042539      -0.00115056
Ti       2.77259128       0.65917000      24.03198390       0.00425880       0.00221800       0.01091187
Ti       7.01466819       2.55943046      24.01490733      -0.00066111       0.00345625       0.00916162
Ti       5.79167779       4.78278390      25.32711484       0.00395570       0.00587916       0.01228775
Ti       5.31289186       0.70808534      25.34442055       0.00337148       0.00253308       0.01225157
Ti       0.35164164       0.48364960      25.49081240       0.00194862       0.00013696       0.00744748
Ti       3.65099366       2.92899705      25.47703685       0.00275761       0.00201190       0.00929641
Ti       2.84718071       0.56884501      26.79147940       0.00089973       0.00709299       0.00358729
Ti       6.91160471       2.57699607      26.77454219       0.00365624       0.00390414       0.00576500
Ti       4.98077383       5.21965608      28.15146129       0.00013009       0.00261038      -0.00524871
Ti       1.68379698       2.77376856      28.16986615       0.00694419       0.00754510      -0.00384594
Ti       4.43968990       2.44134872      28.14716339       0.00368656       0.00095989      -0.01039719
Ti       3.97775096      -1.63756163      28.16313428       0.00282778       0.00064742      -0.00882322
Ti       2.84691102       0.54963200      29.54445617       0.00337839       0.00254636      -0.01381193
Ti       6.90124937       2.56236027      29.52913500       0.00018397       0.00659785      -0.01131690
Ti       3.65252197       2.90350269      30.81239627       0.00147689       0.00103381      -0.01302453
Ti       0.32759772       0.46180688      30.81804816       0.00573383       0.00542786      -0.01085095
Ti       5.32647594       0.68336309      30.98688955       0.00004976       0.00135704      -0.00276050
Ti       5.78222127       4.74776614      30.99587264       0.00227819       0.00979230      -0.00043176
Ti       2.70792677       0.62573675      32.30202311       0.00252571       0.00669182      -0.00083540
Ti       7.06010152       2.52641294      32.27997215       0.00264545       0.00394030       0.00957991
Ti       4.50123151       2.39496290      33.37085989       0.01443689       0.00912169       0.00780867
Ti       4.06939143      -1.49882146      33.43008459      -0.00009178      -0.00271106       0.00352826
Ti       1.79053389       2.87978358      33.81984816       0.00164774       0.01505080       0.00754659
Ti       5.04055671       5.17463325      33.91307694       0.00045459      -0.00136245       0.00534601
Al       6.67650458       2.91074940      34.99560658       0.00355468       0.00447668       0.00267161
Ti       3.11182168       0.60736979      35.05693206       0.00580538       0.00538746       0.00425483
Ti       3.89466650       3.28220852      35.89959317       0.00425992       0.00577663      -0.00277498
Ti       0.51269807       0.65828540      35.96867926      -0.00094651       0.00602869      -0.00395120
Ti       5.45047828       0.89945941      36.65989483       0.00543754       0.01046234      -0.00339737
Ti       5.98312877       5.06916853      36.74695555       0.00239221       0.00419308      -0.00131758
Ti       7.46062998       2.72980808      37.66300039       0.00284744       0.00529625      -0.00614572
Ti       2.62040904       1.30841834      37.72602091       0.00367493       0.00830780      -0.00277838
Ti       4.34959802      -1.02529557      38.52766729       0.00530991       0.00616784      -0.00052219
Ti       4.71637914       3.03272160      38.54863008       0.00161755       0.00653452      -0.00577919
Ti       1.47220493      -0.79428955      39.57070539       0.00376320       0.00779624      -0.00010361
Ti       6.28255710       0.85657231      39.60420444       0.00062562       0.00577717      -0.00528963
Ti       6.88225693       3.57528958      40.24367225       0.00218206       0.00613078      -0.00485588
Ti       3.52824111       1.00199048      40.33398597       0.00250365       0.00733951      -0.00746598
Ti       5.06680342      -1.16175745      41.21771044      -0.00133276       0.00324602      -0.00247340
Ti       4.24549665       3.65974114      41.20510483       0.00495633       0.00378733      -0.00197398
Ti       2.31070184      -1.02111628      42.48870710       0.00358818       0.00164770       0.00740999
Ti       5.63003502       1.39364807      42.46785588       0.00034352       0.00297350       0.00953044
Ti       2.86694411       1.76111625      42.87669635       0.00151463       0.00518732      -0.00494839
Ti       7.75946520       3.22854491      42.82107951       0.00172701       0.00322076      -0.00503063
Ti       4.75043079      -0.85899511      43.98042353       0.00413097      -0.00258358      -0.00158306
Ti       4.58158630       3.60764107      43.98433496      -0.00492407       0.00113885      -0.00078648
Ti       2.05550223       3.53041497      45.35825240       0.00037703       0.00076592      -0.00301228
Ti       1.52911206      -0.51824545      45.36949832      -0.00129216      -0.00088427      -0.00170197
Ti       3.72311507       1.31795142      45.42546235       0.00060168       0.00219758      -0.00578486
Ti       6.98489644       3.79261808      45.40278559      -0.00170090       0.00071105      -0.00470106
Ti       4.55091700       3.66409392      46.77661853      -0.00046907      -0.00177803       0.00330319
Ti       4.82971938      -0.85128635      46.78923217      -0.00482525      -0.00010730       0.00180643
Ti       5.67961305       1.46691272      48.22470226      -0.00419008      -0.00109095       0.00218760
Ti       2.36718884      -0.96637178      48.24225938      -0.00096803      -0.00423803       0.00165603
Ti       7.79897514       3.32897004      47.99782620       0.00011036       0.00100038       0.00055960
Ti       2.91982416       1.80126829      48.01328550      -0.00190185      -0.00017477      -0.00063513
Ti       4.35054774       3.71691303      49.54528159      -0.00279534      -0.00543376      -0.00272855
Ti       4.98473059      -1.00693242      49.55798266      -0.00629503      -0.00493042      -0.00260362
Ti       2.01351350       3.44338221      51.23747271      -0.00779805      -0.00426729      -0.00826517
Ti       1.48978386      -0.60827561      51.26381071      -0.00281506      -0.00870601      -0.00892465
Ti       3.59034050       1.19984308      50.62175348      -0.00191959      -0.00159928      -0.00962234
Ti       6.95746709       3.61598258      50.60995286      -0.00418688      -0.00110611      -0.00900057
Ti       4.39311616      -0.90890489      52.19323987      -0.00703862      -0.00434411      -0.00500741
Ti       4.72743932       3.24078650      52.17566563      -0.00393037      -0.00737720      -0.00577152
Ti       3.21144118       5.39368653      53.03806110      -0.00716826      -0.00503224       0.00388932
Ti       2.58793765       1.41533933      53.05376516      -0.00352783      -0.00658590       0.00384813
