100
Lattice="4.4265 -2.555641 0.0 3.767997 6.526363 -0.031456 0.0 0.0 61.781652" Properties=species:S:1:pos:R:3:forces:R:3 job_name=Segregation-1sol-addvac-CSL13-V-V-52-d-1.39 top_level=Segregation-1sol-addvac solute=V energy=-765.45953858 stress_kbar_3x3="_JSON [[-27.03038639, -2.95960393, 0.11585043], [-2.95960395, -31.18233607, 0.952943], [0.11585042, 0.95294303, -2.32682203]]" pbc="T T T"
Ti       2.65313279      -0.56388876       8.80343903      -0.00442131       0.00018884      -0.00320174
Ti       5.97370614       1.87006798       8.78843672       0.00282502      -0.00272055      -0.00345199
Ti       5.41265289      -0.79802945       9.77738155       0.00259049      -0.00824931       0.00331059
Ti       4.39169897       4.14338492       9.76237454      -0.00947077      -0.00472430       0.00236689
Ti       7.10127197       3.88236632      10.41500914       0.00189794      -0.01162648       0.00716320
Ti       3.83173980       1.41774484      10.43074776      -0.00893979      -0.00230321       0.00683547
Ti       1.80748903      -0.39362765      11.35808393      -0.00258356       0.00157375       0.01242690
Ti       6.54430780       1.22205729      11.34242295       0.00262320      -0.00201777       0.01237363
Ti       4.98396485       3.49067687      12.34955679      -0.00296577      -0.00608612       0.00532581
Ti       4.55371668      -0.61136811      12.36586290      -0.00382112      -0.00610716       0.00563999
Ti       3.34026880       5.74312989      13.14259502      -0.00102248      -0.00365851      -0.00531215
Ti       2.89922673       1.64753797      13.15882144      -0.00207358      -0.00271262      -0.00468052
Ti       2.32154887      -1.00756207      14.12996144      -0.00076683      -0.00467277      -0.00121476
Ti       5.75713540       1.35949354      14.11473600      -0.00347893      -0.00351324      -0.00115802
Ti       4.04210878       3.69581444      15.01805989      -0.00128566      -0.00426027       0.00093009
Ti       0.77564905       1.22953217      15.03403369      -0.00180983      -0.00353328       0.00117279
Ti       6.87519476       3.37328637      15.80830056      -0.00086398      -0.00363528       0.01096087
Ti       3.50657522       0.96730505      15.82381657      -0.00197469      -0.00337041       0.01124500
Ti       6.29833167       0.72755768      16.86906888      -0.00105851      -0.00452198       0.00898181
Ti       1.50532566      -0.85665896      16.88525005      -0.00290182      -0.00289764       0.00906435
Ti       4.74392410       2.95494098      17.65609266      -0.00377239      -0.00275162       0.00611384
Ti       4.21216172      -1.08756387      17.67281473      -0.00115759      -0.00392483       0.00516868
Ti       7.41439535       2.74669538      18.51385512      -0.00123287      -0.00252537       0.00393241
Ti       2.69578512       1.12020987      18.52945491      -0.00117233      -0.00380626       0.00352054
Ti       5.86932637       5.04255756      19.64549840      -0.00181118      -0.00305965       0.00388529
Ti       5.45896637       0.92883335      19.66139519      -0.00114526      -0.00407685       0.00332821
Ti       0.49894766       0.73818925      20.27197419      -0.00112520      -0.00180678       0.00085278
Ti       3.75809788       3.20770330      20.25554778      -0.00008172      -0.00152907       0.00075001
Ti       3.09966033       0.64733244      21.26554711      -0.00338872      -0.00079289       0.00462356
Ti       6.80657397       2.85709355      21.25069002       0.00081073      -0.00240172       0.00285562
Ti       5.03026366       5.35122012      22.48401422       0.00168127       0.00082358       0.00321180
Ti       1.72122479       2.91097394      22.50044755      -0.00000272       0.00040127       0.00403141
Ti       4.49744335       2.57978754      22.86065071       0.00059645      -0.00283612      -0.00256301
Ti       4.01333906      -1.49227350      22.87712424      -0.00106442      -0.00154599      -0.00182669
Ti       7.03844258       2.60709159      24.02139334      -0.00111658       0.00191907       0.00648485
Ti       2.76846663       0.72229806      24.03567389       0.00386168      -0.00073836       0.00681168
Ti       5.79672104       4.83538639      25.31556558       0.00375496       0.00353063       0.00451745
Ti       5.32255915       0.76149532      25.33150952      -0.00058063       0.00343814       0.00561395
Ti       3.65989092       2.98272925      25.50216917      -0.00195076      -0.00267047       0.00052427
Ti       0.35857464       0.53868167      25.51541315       0.00069060      -0.00173552       0.00142810
Ti       2.86508641       0.61822210      26.79712281       0.00175945       0.00227407      -0.00390171
Ti       6.90812689       2.63713513      26.78336197       0.00400132       0.00309524      -0.00084455
Ti       4.98961993       5.27171782      28.14836888       0.00252332       0.00147897       0.00030649
Ti       1.68314162       2.82866014      28.15288191       0.00073666       0.00116043       0.00039030
Ti       4.43815475       2.49699743      28.17983106       0.00147093       0.00164710      -0.00337840
Ti       3.98763320      -1.58896249      28.18903883       0.00304624       0.00153008      -0.00183481
Ti       6.91896146       2.60653739      29.52683606       0.00181606       0.00507309      -0.00226267
Ti       2.84406012       0.60975107      29.54600919       0.00350913       0.00118550       0.00339462
Ti       3.61803537       2.93182504      30.85949365       0.00199879      -0.00171283      -0.00152231
Ti       0.39353760       0.49145605      30.87536575       0.00408519       0.00351649      -0.00052082
Ti       5.80677540       4.80983252      30.97565610       0.00464173       0.00866195       0.00135157
Ti       5.27494773       0.71017109      30.97139941      -0.00027873       0.00132471       0.00017637
V        2.77442459       0.63988302      32.25637940       0.00226452       0.00375325       0.00067285
Ti       7.00179301       2.56224190      32.28381336       0.00799773       0.00212030       0.00187409
Ti       3.97545265      -1.50247123      33.41353199       0.00660759       0.00812344      -0.00689915
Ti       4.44561237       2.44093634      33.40682128      -0.00137191      -0.00107228      -0.00819069
Ti       1.71623085       2.78698341      33.72733156       0.00503661       0.00098234       0.00328027
Ti       5.01110679       5.29980809      33.72479777       0.00394252       0.00747828       0.00286336
Ti       3.03130623       0.56715975      35.04733705       0.00571948       0.00711243      -0.00043286
Ti       6.69489161       2.78411819      35.03741661      -0.00020448       0.00714640       0.00158471
Ti       0.41045707       0.65552029      35.99058346       0.00472352       0.00621583      -0.00350786
Ti       3.70077045       3.14696430      35.94577362       0.00172820       0.00972556      -0.00679331
Ti       5.42471801       0.79940854      36.61047056       0.00571843       0.00272403      -0.00034633
Ti       5.76212468       4.97857738      36.62345501       0.00491807       0.01102354       0.00191126
Ti       7.39867092       2.62812568      37.73837550       0.00611930       0.00704873      -0.00351202
Ti       2.55744757       1.07981166      37.76236099       0.00162696       0.00958837      -0.00440538
Ti       4.67918469       2.90877898      38.52357937       0.00361816       0.00810372      -0.00186367
Ti       4.18359470      -1.13800861      38.54849136       0.00528653       0.01120815      -0.00024551
Ti       6.20926457       0.68505291      39.51317607       0.00323326       0.00662599       0.00402508
Ti       5.23457197       5.57852591      39.49060739       0.00325998       0.00759123       0.00156590
Ti       3.50811095       0.88106328      40.38726982       0.00258438       0.00914653      -0.00182580
Ti       6.76681537       3.35829067      40.36265305       0.00459077       0.01086072       0.00020356
Ti       4.08555687       3.59750005      41.18301108       0.00655336       0.00038767      -0.00326250
Ti       5.07348060      -1.32374699      41.19931291      -0.00049981       0.00842171      -0.00343063
Ti       2.27158545      -1.10928248      42.40255313       0.00255952       0.00311108       0.00445599
Ti       5.66556761       1.27873949      42.39365375      -0.00210089       0.00343642       0.00534064
Ti       3.33485105       5.69333793      42.91218935       0.00133827       0.00421326      -0.01445629
Ti       2.83506902       1.63445566      42.93207174       0.00170994       0.00491215      -0.01279009
Ti       4.65203531       3.49441066      43.92762820      -0.00725166       0.00335057      -0.00680091
Ti       4.69678667      -0.88571419      43.94289799       0.00474120      -0.00217397      -0.00731600
Ti       2.07183184       3.47333182      45.29303763      -0.00025261      -0.00439032      -0.00446347
Ti       1.54678947      -0.57480677      45.30833574      -0.00538713      -0.00012849      -0.00381991
Ti       6.99331976       3.74108292      45.44970552       0.00004746      -0.00225805      -0.00940304
Ti       3.74559426       1.26586495      45.46594056      -0.00255346      -0.00143790      -0.00800107
Ti       4.54343948       3.63321397      46.74847068      -0.00260572      -0.00359756       0.00261985
Ti       4.87878114      -0.91201527      46.76346625      -0.00176270      -0.00102472       0.00342879
Ti       5.68499534       1.43280249      48.17594981       0.00231676      -0.00276306       0.00267224
Ti       2.40397282      -1.02513735      48.19164386      -0.00409679       0.00202027       0.00210091
Ti       3.41225607       5.84344068      48.01841243       0.00013571      -0.00758315       0.00213605
Ti       2.93419640       1.76836660      48.03582270      -0.00859038      -0.00268937       0.00299927
Ti       4.40045526       3.67601673      49.53707684      -0.00933720      -0.00385977      -0.01233525
Ti       4.99019284      -1.01627639      49.55212828       0.00014106      -0.00822197      -0.01106716
Ti       2.04865860       3.42349638      51.21741140      -0.00289400      -0.00941700      -0.00227471
Ti       1.52539262      -0.62294075      51.23070054      -0.00245050      -0.00191112      -0.00260828
Ti       6.99479471       3.59518039      50.61638433      -0.00010323      -0.00721848      -0.01703302
Ti       3.62843603       1.19129789      50.63314590      -0.00955069      -0.00445549      -0.01284793
Ti       4.76104444       3.23343812      52.17623035      -0.00470842      -0.00867276      -0.00217232
Ti       4.42848941      -0.92972675      52.19111946      -0.00285849      -0.00399466      -0.00249347
Ti       3.25853236       5.37523275      53.03588851      -0.00814206      -0.00520595      -0.00026239
Ti       2.61156783       1.39752185      53.05228841      -0.00339857      -0.00865359      -0.00227084
