52
Lattice="4.6568 0.0 0.0 0.0 7.770572 0.0 0.0 0.0 41.044546" Properties=species:S:1:pos:R:3:forces:R:3 job_name=Segregation-1sol-addvac-CSL7-V-V-30-d-2.82 top_level=Segregation-1sol-addvac solute=V energy=-394.20205664 stress_kbar_3x3="_JSON [[-16.13699546, -0.06282216, -0.26174985], [-0.06282214, -16.33134524, 0.06887689], [-0.26174983, 0.06887689, -2.6426031]]" pbc="T T T"
Ti       2.31012740       7.26691289       8.70010483       0.00303508      -0.00170547      -0.00285602
Ti       4.64815465       5.38038168       8.95957956       0.00186891       0.00140381      -0.01111165
Ti       2.31403946       2.26166244       9.47363222       0.00254580      -0.01289948      -0.00486616
Ti       4.64430146       0.55465012       9.81822716       0.00320846       0.00247546       0.00714317
Ti       2.31855301       4.98776030      10.43802127       0.00226143      -0.00389684       0.01230095
Ti       4.64538311       3.39421354      10.75248083       0.00150119      -0.00655792       0.00947755
Ti       2.32014944       0.10187453      11.35730048       0.00274481       0.00136957       0.01254944
Ti       4.65067051       6.14365263      11.61601438       0.00195418       0.00211093       0.01338700
Ti       2.31914958       2.78628121      12.28276323       0.00100579      -0.00082430       0.01385850
Ti       4.64933942       1.12021508      12.65415522       0.00147407      -0.01261236       0.01037871
Ti       2.32058068       5.58398613      13.20230967       0.00179358       0.00827530       0.01138720
Ti       4.64877637       3.91840258      13.59208762       0.00033534       0.00447828       0.01582515
Ti       2.32609218       0.57849633      14.23631505       0.00175054      -0.00771078       0.01564782
Ti       0.00317809       6.66800264      14.49665526       0.00152842       0.00407326       0.01141576
Ti       2.32015305       3.33784302      15.16416849      -0.00085643      -0.00585418       0.01825576
Ti       0.00701343       1.69390295      15.52961328      -0.00058357       0.00205492       0.01323862
Ti       2.33778879       6.09954988      16.03506484      -0.00325139       0.00004641       0.00455713
Ti       4.61379837       4.44549214      16.49426422      -0.00002807       0.00343351       0.00803430
Ti       2.34664244       1.10722143      17.10036993      -0.00367777       0.00601582       0.00750290
Ti       0.01364097       7.22821197      17.29459248      -0.00103384       0.00140638       0.00033062
Ti       2.20078912       3.80177236      18.07574118       0.00023742       0.00642386       0.01121844
Ti       0.10951149       2.15693786      18.48984270       0.00341527       0.00494634      -0.00189986
Ti       2.28641662       6.59694756      18.73701870      -0.00096344      -0.00276518      -0.00288400
Ti       4.16837142       4.83752689      19.35072797       0.00975822      -0.00183481       0.00559976
Ti       2.67952248       1.57845960      20.03703595      -0.00134278       0.00562016      -0.00155701
Ti       0.43430837       7.64215480      20.18994977       0.00240064       0.00058339      -0.00123333
Ti       1.23754012       4.84749369      20.77769920      -0.00317862      -0.00414682      -0.00704471
Ti       3.17791326       6.50448766      21.48279164      -0.00685382       0.00129760       0.00466543
Ti       0.62221973       2.20435161      21.62643863      -0.00416068       0.00713289      -0.00074525
Ti       3.16178704       3.73137478      22.00677563      -0.01014596       0.00082995      -0.01026023
V        0.69241129       7.25934388      22.94648650       0.00126079       0.00025636       0.00469959
Ti       3.00339947       1.05122823      22.92829885      -0.00035241       0.00741816      -0.00264816
Ti       0.77709466       4.56248810      23.56017611       0.00052068       0.00408548      -0.00677539
Ti       3.04757760       6.14543822      24.08174548      -0.00269851       0.00801845      -0.00272213
Ti       0.70645138       1.72021385      24.52344828       0.00158199      -0.00237209      -0.00645554
Ti       3.07335405       3.35797090      24.88160777      -0.00309640      -0.01056771      -0.00558191
Ti       0.71631022       6.69635817      25.60407030      -0.00195329       0.00463072      -0.01262211
Ti       3.04746646       0.60836643      25.85259194      -0.00154270      -0.00890741      -0.01526414
Ti       0.73292682       3.92823386      26.45856664       0.00168997       0.00824904      -0.00961406
Ti       3.05819788       5.56652666      26.86883569       0.00036217      -0.00331563      -0.01074037
Ti       0.71856108       1.17010493      27.44912515      -0.00179457       0.00155319      -0.01982686
Ti       3.05307696       2.82930821      27.77143437       0.00038034       0.01094636      -0.00563859
Ti       0.72392182       6.11096594      28.43232251      -0.00045580      -0.01368547      -0.00868118
Ti       3.05095188       0.02317419      28.72457215      -0.00063870      -0.00087381      -0.01108968
Ti       0.72355214       3.39287876      29.36417672      -0.00020341       0.00122877      -0.00657403
Ti       3.05422987       5.09821519      29.71787125      -0.00047278       0.00036594      -0.01323762
Ti       0.72414255       0.63811951      30.27549299      -0.00000631       0.00170771      -0.01082476
Ti       3.05293015       2.23479408      30.55342516       0.00034991       0.00022224      -0.00961925
Ti       0.72595024       5.55144609      31.24054854      -0.00015336      -0.00153552      -0.00847565
Ti       3.05099003       7.27547719      31.54499743       0.00023637      -0.01073003       0.00090396
Ti       0.72425202       2.63757639      32.04319386       0.00071533       0.00645044       0.00115928
Ti       3.05442564       4.51220907      32.36334381      -0.00047208      -0.00631492      -0.00268738
