64
Lattice="5.871999 0.0 0.0 0.0 6.890708 0.0 0.0 0.0 43.401158" Properties=species:S:1:pos:R:3:forces:R:3 job_name=Segregation-1sol-addvac-T1m-V-V-46-d-5.43 top_level=Segregation-1sol-addvac solute=V energy=-485.80615087 stress_kbar_3x3="_JSON [[-6.09907508, -0.13124782, -0.32825312], [-0.13124778, -7.6204936, -1.51251595], [-0.32825308, -1.51251596, -0.4196425]]" pbc="T T T"
Ti       0.04079144       6.78112842       8.74522230       0.00687543      -0.00163788       0.00254634
Ti       2.99796988       6.84252334       8.60102533       0.00650960       0.00208629      -0.00255879
Ti       1.63697953       4.75010929       9.47693946       0.01026153      -0.00631721      -0.00795659
Ti       4.32816122       4.76846273       9.58702332      -0.00033794      -0.00336970      -0.00249697
Ti       1.47962729       1.61963032      10.17633655       0.00311284       0.00814080      -0.00133978
Ti       4.41670348       1.61155172      10.18722331      -0.00129341       0.00626536      -0.00130564
Ti       5.84758503       6.55047150      11.65961759      -0.00474019       0.00357077       0.00528182
Ti       2.88990464       6.51918134      11.54546229      -0.00530738      -0.00160057      -0.00159696
Ti       2.87041815       3.62056934      11.55538044      -0.00017325       0.00082154      -0.00395431
Ti       0.08569345       3.69671614      11.47319058       0.00501439       0.00183995      -0.00497814
Ti       4.40392917       1.68504952      12.97893085      -0.00161411       0.00886303      -0.00179487
Ti       1.42764884       1.68272575      12.98644676      -0.00152518       0.00921189      -0.00095538
Ti       4.40845686       4.74970274      13.51886110      -0.00112768      -0.00409061       0.00086035
Ti       1.44974367       4.76058331      13.58907828       0.00109020      -0.00343142       0.00149333
Ti       2.93946880       0.00468602      14.68455726      -0.00058824       0.00116392      -0.00099231
Ti       5.84912990       0.01586519      14.70746015      -0.00074037       0.00160181      -0.00075370
Ti       2.92619612       2.83322517      15.17103696      -0.00076218       0.00165725      -0.00050080
Ti       5.86062209       2.84315622      15.20349019      -0.00076532       0.00323468       0.00082164
Ti       4.39228033       5.01261166      16.33547878      -0.00049191       0.00016666       0.00149002
Ti       1.46720215       5.00820400      16.37171168      -0.00084184      -0.00011022       0.00134845
Ti       1.46356058       1.02254864      16.92734227      -0.00081661      -0.00094008       0.00193387
Ti       4.39347928       1.01584015      16.92857634      -0.00059395      -0.00083298       0.00205955
Ti       5.86570439       3.19623491      18.09691398      -0.00045029       0.00210577       0.00290647
Ti       2.93431686       3.19833084      18.08455664      -0.00065282       0.00246629       0.00274346
Ti       2.93473037       6.01988749      18.60297593      -0.00066531      -0.00040749       0.00350352
Ti       5.86449392       6.02487103      18.60116012      -0.00042736      -0.00015890       0.00297642
Ti       1.46876683       1.30642215      19.75236719      -0.00036317       0.00155196       0.00141338
Ti       4.39956539       1.30189027      19.75743562      -0.00049970       0.00143228       0.00140404
Ti       4.39961629       4.20865791      20.32789995      -0.00037787       0.00113066      -0.00098762
Ti       1.46641126       4.20972119      20.33615333      -0.00049414       0.00104340      -0.00124837
Ti       2.93082718       6.37803105      21.50646847      -0.00018215       0.00017243      -0.00031157
Ti       0.00262269       6.37704636      21.50816156      -0.00044462       0.00027307      -0.00054818
Ti       2.92826595       2.32998811      21.99646607      -0.00022400      -0.00054752      -0.00168639
Ti       0.00525255       2.32949061      21.99364799      -0.00060551      -0.00058113      -0.00191652
Ti       4.40608523       4.45416497      23.13631333      -0.00016860       0.00333469      -0.00365434
Ti       1.46532559       4.46303764      23.15426000      -0.00027163       0.00312015      -0.00364633
Ti       4.39831503       0.60483025      23.70413618      -0.00079820      -0.00238954      -0.00490018
Ti       1.47142817       0.61610593      23.72659736       0.00010146      -0.00255556      -0.00499356
Ti       5.85838683       2.73694613      25.04520230      -0.00034983      -0.00117228      -0.00667312
Ti       2.94834563       2.73776410      25.05138227      -0.00012376      -0.00079451      -0.00605750
Ti       5.84667133       5.57604199      25.27353975       0.00028162       0.00391978      -0.00598451
Ti       2.96422968       5.56503416      25.28072416      -0.00048292       0.00306158      -0.00540266
Ti       4.39519326       0.71045064      26.45717534      -0.00090020      -0.00227774      -0.00507373
Ti       1.47667972       0.72107098      26.49132369       0.00049798      -0.00219866      -0.00541762
V        4.43656217       4.20608222      27.04317662       0.00143347       0.00007720       0.00097540
Ti       1.43845184       4.20899163      27.10143556      -0.00202930      -0.00070840       0.00281193
Ti       2.98272230       2.23346983      28.25437302      -0.00054335       0.00001582       0.00383441
Ti       5.82261612       2.21470152      28.26128450       0.00015577      -0.00149559       0.00452220
Ti       2.94922600       6.22017367      28.52352600      -0.00036363      -0.00235838       0.00301610
Ti       5.85762519       6.22483217      28.52344240      -0.00002523      -0.00188489       0.00303628
Ti       4.40651727       4.09926306      29.81232795       0.00024325       0.00317932      -0.00338028
Ti       1.46361149       4.12341825      29.86834554      -0.00077644       0.00371629      -0.00359674
Ti       1.47271901       1.08970563      30.35394533       0.00041684      -0.00841426       0.00187998
Ti       4.39494354       1.10406544      30.38780424      -0.00062529      -0.00907750       0.00098998
Ti       2.93765009       5.86862912      31.57328347      -0.00086725       0.00538338       0.00179640
Ti       5.86837859       5.87145034      31.57473642       0.00060252       0.00529822       0.00217657
Ti       5.86288134       2.97653945      31.98527414       0.00068175      -0.00041318      -0.00165007
Ti       2.94141226       2.97821266      31.98595109      -0.00116882       0.00042562      -0.00157768
Ti       1.46775283       0.91240733      33.14869939      -0.00033792      -0.00423348       0.00614614
Ti       4.40354976       0.91271224      33.18039405      -0.00018623      -0.00447004       0.00668011
Ti       1.46207491       4.82558883      33.73904849      -0.00081467      -0.00626311       0.00713299
Ti       4.40866141       4.82342980      33.75016454       0.00039716      -0.00620679       0.00811414
Ti       0.00064146       2.72626653      34.73882149       0.00031620      -0.00453326       0.00691371
Ti       2.93616195       2.72509853      34.73559515      -0.00005222      -0.00485896       0.00708217
