64
Lattice="5.871999 0.0 0.0 0.0 6.890708 0.0 0.0 0.0 43.401158" Properties=species:S:1:pos:R:3:forces:R:3 job_name=Segregation-1sol-addvac-T1m-V-V-38-d-2.03 top_level=Segregation-1sol-addvac solute=V energy=-486.9312121 stress_kbar_3x3="_JSON [[-5.60505265, -0.0030608, 0.00151825], [-0.00306082, -15.80337022, -1.18689596], [0.00151828, -1.18689595, -1.48606549]]" pbc="T T T"
Ti       1.46805603       5.04319233       8.94136591      -0.00040638       0.01015854       0.00293325
Ti       4.40394525       5.04330098       8.94160500       0.00033802       0.01050010       0.00310607
Ti       4.40402183       1.24797133       9.34010142       0.00003707       0.00540857       0.00507172
Ti       1.46799773       1.24819684       9.33742455       0.00008638       0.00596301       0.00604332
Ti       0.00043656       3.39996967      10.53497816       0.00017311       0.00819907      -0.01186175
Ti       2.93555087       3.39997388      10.53496284      -0.00005587       0.00789128      -0.01162329
Ti       2.93612767       6.33181076      10.88619477       0.00012213       0.00686274      -0.01317065
Ti      -0.00014894       6.33182241      10.88626353       0.00005052       0.00658448      -0.01347807
Ti       1.46794986       1.53523273      12.15236683       0.00009209       0.00963715      -0.00097395
Ti       4.40404664       1.53450693      12.15564296      -0.00004767       0.00949111      -0.00038347
Ti       4.40398579       4.49737251      12.69170147       0.00003319       0.00361940       0.01917955
Ti       1.46801581       4.49716432      12.69072197      -0.00000268       0.00355120       0.01857621
Ti       2.93397304       6.64852960      13.83882112       0.00066644       0.00297167       0.01642603
Ti       0.00200679       6.64850339      13.83872791      -0.00068426       0.00260646       0.01690696
Ti       0.00206346       2.59769923      14.37627073      -0.00041903       0.00643223       0.01222512
Ti       2.93392656       2.59778577      14.37644046       0.00052240       0.00598723       0.01174294
Ti       4.40399825       4.74658514      15.52417762       0.00026842       0.00648006       0.00914991
Ti       1.46793363       4.75090728      15.52073684      -0.00036132       0.00670214       0.01073032
Ti       4.40397842       0.77565677      16.08707252      -0.00005846       0.00394703       0.00964029
Ti       1.46802706       0.77479779      16.10299269      -0.00012498       0.00430166       0.01081980
Ti       0.00300038       2.93500491      17.27519647       0.00061974       0.00236050       0.01349725
Ti       2.93300115       2.93487678      17.27545721      -0.00075996       0.00207048       0.01401347
Ti       0.00656582       5.78560315      17.76762299       0.00001997       0.00308898       0.01733034
Ti       2.92943001       5.78545393      17.76748501      -0.00016811       0.00336013       0.01751193
Ti       4.40373365       1.00928061      18.90033711      -0.00021361       0.00397954       0.01614368
Ti       1.46817512       1.02049010      18.92484762       0.00038418       0.00261752       0.01327255
Ti       4.40473968       4.05966990      19.47139538       0.00031828       0.00256027       0.01061535
Ti       1.46732241       4.07121752      19.49243459      -0.00042407       0.00298809       0.01103279
Ti       2.94834763       6.18671395      20.82681649       0.00020720       0.00287889       0.00530229
Ti       5.85972316       6.18688897      20.82758589      -0.00035145       0.00293212       0.00538292
Ti       2.96741636       2.13471327      21.04183419      -0.00099140       0.00002918       0.00891982
Ti       5.84005509       2.13327370      21.04318212       0.00092769      -0.00046843       0.00960326
Ti       4.40490716       4.15831073      22.23095978       0.00054858       0.00206290      -0.00040276
Ti       1.46676302       4.16716706      22.26108890      -0.00052377       0.00251039       0.00097372
V        4.39946373       0.77543985      22.82103866      -0.00217404      -0.00341573      -0.01303827
Ti       1.47226137       0.78941044      22.87902671       0.00158336      -0.00614218      -0.00896034
Ti       5.82668401       5.68636051      24.01976877      -0.00144520      -0.00007120      -0.01289589
Ti       2.98128508       5.68367458      24.02058956       0.00165585      -0.00129491      -0.01216323
Ti       5.85995293       2.78653484      24.32065968      -0.00073169      -0.00534937      -0.01449517
Ti       2.94815592       2.78734451      24.32087640       0.00052409      -0.00527647      -0.01466059
Ti       4.40354953       0.66860196      25.58482666      -0.00003961      -0.00114247      -0.01362253
Ti       1.46852316       0.69266091      25.64670267       0.00009730      -0.00017791      -0.01275480
Ti       1.46734798       4.58924703      26.15574092      -0.00016554      -0.00618298      -0.01363696
Ti       4.40494867       4.60378638      26.18049970       0.00013291      -0.00591492      -0.01152033
Ti       2.93940815       2.47791239      27.31124317      -0.00025199      -0.00494999      -0.00979204
Ti       5.86878977       2.47778577      27.31107103       0.00027498      -0.00533515      -0.00988510
Ti       2.94295512       6.51060970      27.83979997      -0.00003139      -0.00613147      -0.01314920
Ti       5.86524205       6.51088844      27.83997883      -0.00008194      -0.00553681      -0.01307805
Ti       1.46801796       4.35805535      28.99435531      -0.00009885      -0.00287990      -0.01389290
Ti       4.40413750       4.35805001      29.01300142       0.00011963      -0.00305707      -0.01242085
Ti       1.46803163       1.49301622      29.56380565       0.00027213      -0.00859012      -0.01316106
Ti       4.40414675       1.49368767      29.57385266      -0.00026781      -0.00859214      -0.01395507
Ti       2.93316742       6.25093245      30.70866669       0.00009869      -0.00979638      -0.01632716
Ti       0.00298701       6.25107829      30.70873884       0.00010152      -0.00977080      -0.01601648
Ti       0.00496866       3.31368256      31.22064928       0.00064712      -0.00729334      -0.00020304
Ti       2.93121651       3.31370868      31.22068045      -0.00054946      -0.00724254      -0.00052154
Ti       1.46814601       1.22274118      32.49213797      -0.00006942      -0.00971433       0.01197033
Ti       4.40399967       1.22566297      32.49690478       0.00013769      -0.01016835       0.01297447
Ti       1.46821995       5.16739411      32.86665997       0.00022693       0.00095156       0.00896533
Ti       4.40395225       5.16276633      32.86491555      -0.00002537      -0.00009896       0.00849540
Ti       0.00020219       3.02920006      34.05542570       0.00006311      -0.01087451      -0.00710000
Ti       2.93594330       3.02919770      34.05545278       0.00016163      -0.01112815      -0.00646631
Ti       5.87158377       6.82897985      34.44254335      -0.00033360      -0.00251536      -0.00691449
Ti       2.93660038       6.82896743      34.44258646       0.00034660      -0.00257372      -0.00603104
