100
Lattice="4.4265 -2.555641 0.0 3.767997 6.526363 -0.031456 0.0 0.0 61.781652" Properties=species:S:1:pos:R:3:forces:R:3 job_name=Segregation-1sol-addvac-CSL13-V-V-55-d-2.65 top_level=Segregation-1sol-addvac solute=V energy=-765.518003 stress_kbar_3x3="_JSON [[-26.48570614, -2.69882859, 0.10099732], [-2.69882861, -29.41296297, 1.35450688], [0.10099728, 1.35450685, -0.7947336]]" pbc="T T T"
Ti       2.64844863      -0.57123428       8.83205545      -0.00537512      -0.00410563      -0.00621663
Ti       5.96365884       1.86525068       8.81638850      -0.00122450      -0.00598705      -0.00581756
Ti       5.40635284      -0.80722076       9.79863895      -0.00246065      -0.00898066       0.00721878
Ti       4.38015736       4.13637794       9.78280022      -0.00709358      -0.00732488       0.00743090
Ti       3.82434699       1.40812143      10.45464696      -0.00823820      -0.00152388      -0.00260480
Ti       7.08943642       3.87379711      10.43909457       0.00214818      -0.00910632      -0.00177287
Ti       6.53894192       1.20798224      11.36732089       0.00081719      -0.01006866       0.00465866
Ti       1.79089155      -0.40167376      11.38285577      -0.00934456      -0.00415650       0.00644952
Ti       4.97396961       3.47127956      12.36595754      -0.00687382      -0.00186160      -0.00065675
Ti       4.53316604      -0.62511391      12.38149865       0.00225627      -0.00713858      -0.00041095
Ti       2.88295952       1.62742043      13.17865017      -0.00352440      -0.00341530       0.00285849
Ti       3.32355579       5.72424243      13.16318122      -0.00081587      -0.00462396       0.00224581
Ti       5.73562933       1.33989899      14.13845072      -0.00110808      -0.00471296       0.00320905
Ti       2.30667566      -1.03128773      14.15406557      -0.00323146      -0.00359565       0.00250013
Ti       4.01914324       3.67263822      15.03248979      -0.00270020      -0.00288310      -0.00121462
Ti       0.75826258       1.20424943      15.04810282      -0.00077878      -0.00417007      -0.00081546
Ti       3.48328508       0.94329765      15.84612007      -0.00176933      -0.00346232      -0.00208789
Ti       6.85723922       3.34639455      15.83059198      -0.00194931      -0.00385155      -0.00217355
Ti       6.27899845       0.69844221      16.89827097      -0.00139506      -0.00288528      -0.00292975
Ti       5.24753926       5.64498371      16.88268633      -0.00139873      -0.00319968      -0.00276923
Ti       4.18749424      -1.11884660      17.68385033       0.00047643      -0.00258538      -0.00223921
Ti       4.71938753       2.92499895      17.66785601      -0.00185396      -0.00151594      -0.00250591
Ti       2.68312088       1.08599337      18.55233565      -0.00039529      -0.00148782      -0.00251564
Ti       7.38195616       2.72431848      18.53676548      -0.00037162      -0.00152292      -0.00254895
Ti       5.43380687       0.90487547      19.69692150      -0.00056760      -0.00165275      -0.00012482
Ti       5.85002824       5.01488068      19.68164702       0.00022126      -0.00240400      -0.00039479
Ti       0.47264045       0.70983341      20.27658926      -0.00011429       0.00144239      -0.00242827
Ti       3.73551621       3.17645565      20.26096895       0.00237019       0.00012427      -0.00258796
Ti       3.06253463       0.63742652      21.29135213       0.00104888      -0.00102475      -0.00230921
Ti       6.80601967       2.82669718      21.27576001      -0.00032261      -0.00054852      -0.00172204
Ti       5.01329359       5.33989658      22.52408441       0.00290648      -0.00160169      -0.00251078
Ti       1.70973760       2.89364802      22.53850849      -0.00090823       0.00081240      -0.00275215
Ti       3.99905175      -1.50968930      22.87902258       0.00156390       0.00191510      -0.00497728
Ti       4.48080420       2.56360450      22.86225758       0.00262171       0.00196129      -0.00525785
Ti       2.77389180       0.70546861      24.06112420       0.00149722      -0.00096420      -0.00376884
Ti       7.01390427       2.60407967      24.04443809      -0.00008196      -0.00021059      -0.00436645
Ti       5.31497046       0.75193236      25.36943502       0.00245125       0.00059573      -0.00004484
Ti       5.78997832       4.82986538      25.35405103       0.00165849       0.00056440      -0.00066003
Ti       0.34945729       0.52962945      25.51660307       0.00246099       0.00337216      -0.00100388
Ti       3.65412176       2.97479189      25.50646720       0.00446362       0.00315881      -0.00014344
Ti       6.90655347       2.62108240      26.79673922       0.00242157       0.00119381       0.00148685
Ti       2.84954190       0.62291717      26.81198880       0.00203937       0.00125531       0.00258938
Ti       4.97679427       5.26803950      28.17581632       0.00383617       0.00052299       0.00218450
Ti       1.68323603       2.82230528      28.19014057       0.00025412       0.00207086       0.00035529
Ti       3.97276497      -1.59082819      28.17638217       0.00391790       0.00436751       0.00299858
Ti       4.44433637       2.49034141      28.18439773       0.00465805       0.00421341       0.00066291
Ti       6.90205990       2.59650628      29.54948489       0.00296134       0.00385596       0.00093646
Ti       2.85409492       0.60482652      29.56010318       0.00414860       0.00150592      -0.00033284
Ti       0.33907540       0.49036066      30.79420657       0.00116785       0.00433697      -0.00123213
Ti       5.77631049       4.80223454      30.99066188       0.00367869      -0.00065578       0.00178876
Ti       5.29567918       0.72083129      30.99162880      -0.00053475       0.00157900       0.00082316
Ti       3.63556578       2.94207388      30.89260558       0.00635506       0.00456370       0.00079346
Ti       6.99226569       2.55362186      32.34607942       0.00633156       0.00625036       0.00055018
Ti       2.71352680       0.69244993      32.33223232       0.00319574       0.00618263       0.00025433
Ti       4.06997181      -1.51110591      33.35638758       0.00526520       0.00557900      -0.00509374
V        4.48229376       2.41949307      33.37573566       0.00314199       0.00614309      -0.00537484
Ti       1.71697505       2.89433241      33.81023764       0.00412241       0.00379161      -0.00017499
Ti       5.03935477       5.12788737      33.82119787       0.00436429       0.00253051      -0.00115956
Ti       3.20044194       0.54891952      35.04863196       0.00440874       0.00573980       0.00094884
Ti       6.56709223       2.95103393      35.05849950       0.00170365       0.00683312      -0.00109974
Ti       3.80100452       3.30769624      35.79831493       0.00379362       0.00581611       0.00130239
Ti       0.52221923       0.71787218      35.86581838       0.00417301       0.00626395       0.00174078
Ti       5.50193120       0.86073042      36.67169896       0.00067168       0.00424789       0.00403325
Ti       5.82973318       5.09594949      36.73293281       0.00351196       0.00790719       0.00636211
Ti       2.60036474       1.24606428      37.68780374       0.00398675       0.00540601       0.00189649
Ti       3.07503567       5.24758509      37.69232826       0.00341240       0.00658017       0.00468682
Ti       4.73519088       3.02751817      38.43236392       0.00135391       0.00537184       0.00169105
Ti       4.32171388      -1.05178522      38.47972881       0.00290880       0.00300672      -0.00044471
Ti       6.27552763       0.78770368      39.56629253       0.00238702       0.00553753       0.00134040
Ti       1.49968143      -0.83945929      39.59558680      -0.00045659       0.00614514       0.00110986
Ti       6.85265847       3.50513203      40.23575324       0.00263765       0.00338402      -0.00603276
Ti       3.56933689       0.99051667      40.26520926      -0.00108632       0.00468611      -0.00613171
Ti       4.23495086       3.60495353      41.14943582       0.00152252       0.00257058      -0.00300628
Ti       5.02330498      -1.18885795      41.17746096      -0.00125624       0.00302008      -0.00108563
Ti       2.31926226      -1.10854363      42.47090786      -0.00171193       0.00190499       0.00533136
Ti       5.63909084       1.32801543      42.44936543       0.00171698       0.00111871       0.00372888
Ti       2.86108625       1.67863289      42.80956475      -0.00337829      -0.00018996       0.00020232
Ti       3.35614197       5.72793785      42.78143537      -0.00060987       0.00049970       0.00050735
Ti       4.57424238       3.53384589      43.94176495      -0.00493887       0.00101946       0.00782385
Ti       4.76814366      -0.93264461      43.95506378       0.00061565      -0.00447396       0.00775321
Ti       1.53312111      -0.59287831      45.34007030      -0.00372197       0.00247325       0.00698546
Ti       2.06131408       3.45576461      45.32648053       0.00043953      -0.00034485       0.00772661
Ti       3.72651115       1.24677201      45.37608903      -0.00253684      -0.00003490       0.00543829
Ti       6.98468803       3.71801684      45.35774352      -0.00020324      -0.00167014       0.00433520
Ti       4.55833607       3.58605722      46.74055832      -0.00186160      -0.00238087       0.00304244
Ti       4.83058421      -0.92143445      46.75538166      -0.00232271       0.00082156       0.00223351
Ti       5.68678934       1.39273099      48.19462309       0.00149144      -0.01163429      -0.00700885
Ti       2.36940892      -1.04298824      48.20950687      -0.01268240      -0.00263437      -0.00635800
Ti       3.37717166       5.81090425      47.95446466      -0.00239485      -0.00538539      -0.00797374
Ti       2.92425226       1.72223295      47.97208061      -0.00395567      -0.00219475      -0.00700487
Ti       4.34561777       3.63714249      49.50681924      -0.00702420       0.00442455      -0.00622393
Ti       4.98617074      -1.08638546      49.52103697       0.00615201      -0.00154868      -0.00792112
Ti       1.49084539      -0.68714628      51.22371287      -0.01007397      -0.00567134       0.00017813
Ti       2.01394454       3.35923663      51.20711354      -0.00254167      -0.00875470      -0.00001520
Ti       6.95750608       3.52977475      50.56750340      -0.00249863      -0.00025639       0.00850542
Ti       3.59123979       1.12146703      50.58348540       0.00059785       0.00076785       0.00265716
Ti       4.38967282      -0.99519898      52.15133196       0.00244029      -0.00701724       0.00275464
Ti       4.72641729       3.16070179      52.13485610      -0.00715862       0.00035716       0.00336703
Ti       3.21176115       5.31435912      52.99737142      -0.00062442      -0.00145619      -0.00122333
Ti       2.58735553       1.32803216      53.01485913      -0.00327655      -0.00091671      -0.00044774
