52
Lattice="4.6568 0.0 0.0 0.0 7.770572 0.0 0.0 0.0 41.044546" Properties=species:S:1:pos:R:3:forces:R:3 job_name=Segregation-1sol-addvac-CSL7-Al-Al-27-d-1.36 top_level=Segregation-1sol-addvac solute=Al energy=-389.29797009 stress_kbar_3x3="_JSON [[-9.79882949, 1.30525714, 0.40152565], [1.30525716, -15.26014207, -1.46930206], [0.40152563, -1.46930208, -1.61252135]]" pbc="T T T"
Ti       4.64460951       2.33628809       8.58548143      -0.00080019      -0.00000217       0.00801353
Ti       2.31600713       7.68219449       9.00160457      -0.00096024       0.00348652       0.00042190
Ti       4.65156793       5.55983405       9.35665026      -0.00100203       0.00721992      -0.00274900
Ti       2.31705539       2.29619669      10.07195409      -0.00105895      -0.00181564       0.01379681
Ti       4.64453831       0.61917310      10.37448526      -0.00140360       0.00960663       0.00631536
Ti       2.32027167       5.18864879      10.70255001      -0.00071061       0.00514039       0.00087979
Ti       4.64561340       3.49074247      11.16843424      -0.00113228      -0.00359137      -0.00199876
Ti       2.31550573       0.08136025      11.86906519      -0.00098971       0.00860395      -0.00329814
Ti       4.64686563       6.10204736      12.10425159      -0.00102390      -0.00046179       0.00373272
Ti       2.31351532       2.89784759      12.75673742      -0.00112410       0.00147708      -0.00271271
Ti       4.64213194       1.22074183      13.14544683      -0.00059627       0.00586256       0.00419631
Ti       2.31595488       5.61262943      13.64494883      -0.00099786      -0.00695882       0.00660279
Ti       4.63156749       3.96186571      14.10979675      -0.00088808       0.00864424       0.01080648
Ti       2.31754819       0.66115641      14.71872177      -0.00134309       0.00179048       0.01592861
Ti       4.64937209       6.73382224      14.92576538       0.00033726       0.00539500       0.00886376
Ti       2.29443842       3.40404062      15.66484687       0.00031991       0.00519848       0.00061950
Ti       0.00312312       1.76069245      16.02958982      -0.00117028       0.00149981      -0.00188071
Ti       2.31985475       6.18293759      16.46303568      -0.00126183       0.00751936      -0.00289583
Ti       4.58419423       4.53073707      16.97112207      -0.00060650      -0.00168833      -0.00346777
Ti       2.33997827       1.18145086      17.63188158      -0.00140237       0.00184569      -0.00530257
Ti       0.00061317       7.30805677      17.74306568      -0.00190348       0.00127218      -0.00178152
Ti       2.19987480       3.88390135      18.56485301      -0.00159468       0.00077929       0.00214490
Ti       0.12247174       2.29011244      18.96669921       0.00259199       0.00531435      -0.00098322
Ti       2.29129692       6.62427275      19.14122183      -0.00162040       0.00422616      -0.00328711
Ti       4.25062369       4.98874600      19.76801493       0.00810218       0.00402131       0.00600434
Ti       2.80527233       1.67888587      20.53945543       0.00241505      -0.00356190       0.00117632
Ti       0.58070334       0.00444896      20.54237647      -0.00532107      -0.00534044       0.00138724
Ti       1.12084718       4.85811531      21.36076014      -0.00314873      -0.00086692      -0.00785807
Al       3.09143721       6.68398540      21.73425311       0.00441539       0.00143983       0.00263622
Ti       0.65856012       2.21585458      22.11700104      -0.00200576       0.00439438       0.00012150
Ti       3.23172155       3.89445120      22.49162752       0.00183938      -0.00086607       0.00201569
Ti       0.75911566       7.12219517      23.26098960      -0.00155035       0.00050790       0.00106305
Ti       3.04020099       1.11153419      23.40124108       0.00365860       0.00126024       0.00104845
Ti       0.80698285       4.33160711      24.17326955       0.00091030      -0.00614238       0.00162106
Ti       3.08388632       6.02568381      24.45789082       0.00103726      -0.00235405      -0.00041570
Ti       0.72929811       1.60012210      25.07102391       0.00114509      -0.00145277      -0.00157725
Ti       3.09332837       3.25330858      25.40604139      -0.00016598      -0.00376508      -0.00991334
Ti       0.75517146       6.56390519      26.03188139       0.00029096      -0.00221739      -0.00596292
Ti       3.07552759       0.48025650      26.32492178       0.00111561      -0.00257386      -0.00718412
Ti       0.76108617       3.79432848      27.02196266       0.00046254      -0.00135085      -0.00614413
Ti       3.08252124       5.50341183      27.28641516       0.00101348      -0.00334823      -0.00044464
Ti       0.75030727       1.01940332      27.95262350       0.00048061      -0.00385481      -0.00409167
Ti       3.08165377       2.70145694      28.27257471       0.00114355      -0.00175051       0.00092313
Ti       0.75036622       6.03105617      28.85632393       0.00103692      -0.00186458       0.00612018
Ti       3.07730573       7.72452981      29.27590983       0.00020959      -0.00756038       0.00336980
Ti       0.75202061       3.26658426      29.87936466       0.00077228      -0.00301745       0.00402004
Ti       3.07839291       4.93050103      30.10226486       0.00013687       0.00054520      -0.00315081
Ti       0.74660716       0.42028050      30.73582415       0.00041010      -0.00747334       0.00124426
Ti       3.07982983       2.25043986      31.00640928       0.00142296      -0.01440668      -0.00748703
Ti       0.74601313       5.47179561      31.59342088       0.00028984      -0.00290618      -0.00465974
Ti       3.07233599       6.96634683      32.06658083      -0.00000552      -0.00486150      -0.01592881
Ti       3.07260405       4.42665762      32.71556404       0.00023018      -0.00099744      -0.00989819
