64
Lattice="5.088765 0.0 0.0 0.0 9.739025 0.0 0.0 0.0 38.303587" Properties=species:S:1:pos:R:3:forces:R:3 job_name=Segregation-1sol-addvac-T2-V-V-32-d-0.00 top_level=Segregation-1sol-addvac solute=V energy=-484.76025011 stress_kbar_3x3="_JSON [[-13.58577862, 1.55822751, 0.11812792], [1.55822754, -13.95823944, -0.55147109], [0.11812791, -0.55147109, -1.13361323]]" pbc="T T T"
Ti       0.27031715       4.58290485       8.67582330      -0.00065318       0.00358707       0.01072547
Ti       2.81746012       9.45459094       8.67235956       0.00230830       0.00388171       0.01324960
Ti       3.43342527       6.54712324       9.20502599      -0.00037902       0.00184058       0.00215434
Ti       0.88915261       1.68107691       9.20288243      -0.00107967      -0.00015804       0.00478481
Ti       0.12714351       8.83324701       9.81399820      -0.00285322       0.00437018       0.00440723
Ti       2.66738616       3.96268291       9.81975585       0.00142694       0.00052739       0.00433354
Ti       1.13553538       6.25090683      10.57654495      -0.00971503      -0.00653205       0.00742124
Ti       3.68112859       1.38142587      10.57702440      -0.00707512      -0.00780278      -0.00031073
Ti       2.81088742       8.43876989      11.17145253       0.00146942       0.00973227       0.00044882
Ti       0.26409296       3.56764352      11.17595311       0.00105145       0.00864828       0.00084404
Ti       1.08497736       0.91141624      11.82006765       0.01009818       0.00056389       0.00273392
Ti       3.62611649       5.77866650      11.82264895       0.00921476       0.00122582       0.00532177
Ti       0.23473301       8.00951047      12.62336717      -0.00508061      -0.00141343       0.00124589
Ti       2.78379759       3.13357189      12.63076741      -0.00729909       0.00289865       0.00139654
Ti       3.58798807       0.46923422      13.29409367      -0.00450327       0.00248624       0.00005379
Ti       1.03843332       5.33196566      13.29229359      -0.00126971       0.00487267       0.00369441
Ti       2.77797086       7.50387809      13.95966745       0.00251842       0.00237000       0.00150002
Ti       0.24005339       2.62931712      13.97518030       0.00379318       0.00701748       0.00406403
Ti       1.12896847       0.02078458      14.70229637       0.00286532       0.00005436       0.00853891
Ti       3.65748521       4.89105662      14.70660214       0.00238998      -0.00243177       0.01078024
Ti       0.22570777       7.10335270      15.38595151       0.00030776      -0.00014469       0.00511123
Ti       2.77976992       2.22778596      15.40733713      -0.00073958       0.00745342       0.00839750
Ti       3.68583740       9.34611297      15.98837740      -0.00317359       0.00744680       0.00075198
Ti       1.12917749       4.47535975      16.00547370      -0.00181835       0.00721829      -0.00321003
Ti       2.76488273       6.75579288      16.76817653      -0.00482978       0.00690170      -0.00078571
Ti       0.25368971       1.86474936      16.77761603      -0.00698627       0.01044991      -0.00375471
Ti       3.53336620       4.01588139      17.40638474      -0.00021667       0.01370857      -0.01149910
Ti       1.00014544       8.90487133      17.42400319      -0.00243168       0.01005813       0.00134616
Ti       0.22645124       6.06060274      18.11386814       0.01354739       0.01083218      -0.00829713
Ti       2.90849251       1.17566395      18.17084520       0.01359298       0.00274847      -0.01053034
Ti       1.28018871       3.30776940      18.93076802      -0.00707041       0.00097481       0.00246665
Ti       3.82783426       8.24605024      18.92998113      -0.00464928       0.00474587       0.00059595
V        5.08580721       0.78526609      19.52846601      -0.00736289      -0.00101938       0.01288589
Ti       2.53303215       5.70734716      19.52401557      -0.00926920       0.00655526       0.00798171
Ti       1.25859554       8.22675255      20.06379922      -0.00116961      -0.00952961       0.00499175
Ti       3.80855897       3.30063210      20.05715833       0.00512195      -0.00858276       0.00061679
Ti       2.22376959       1.15710622      20.80078890       0.00388769      -0.01439466       0.00263564
Ti       4.90546601       6.02457177      20.83751967       0.01355494      -0.01268014      -0.00328701
Ti       4.08558453       8.84139377      21.58988094       0.00425208      -0.00988378       0.00391097
Ti       1.55129401       3.95819107      21.60342578       0.00372789      -0.00850113       0.01695269
Ti       4.80978826       1.83285845      22.20854185      -0.00604776      -0.00406732      -0.00204602
Ti       2.29205803       6.72370132      22.22726700      -0.01059761      -0.00271727      -0.00329621
Ti       3.97177257       4.47460743      22.96603274      -0.00060388      -0.00907316      -0.00466092
Ti       1.41560872       9.34650526      22.98648421      -0.00033134      -0.00599575      -0.01186108
Ti       2.32694944       2.21469206      23.61424970       0.00580264       0.00397788      -0.00789812
Ti       4.88535547       7.08963054      23.63144591       0.00680744      -0.00203771      -0.00463715
Ti       1.44987086       4.86339642      24.30541678      -0.00041873      -0.00476968      -0.00886266
Ti       3.97948536       9.73319183      24.30944207       0.00033128      -0.00197687      -0.00519620
Ti       4.83882787       2.63495948      24.97446618      -0.00267880      -0.00210032      -0.00194343
Ti       2.30202061       7.50929123      24.98982640       0.00057489      -0.00423884       0.00709657
Ti       4.03984589       5.31898382      25.70179616      -0.00387731      -0.00881315       0.00846396
Ti       1.48942076       0.45644878      25.70392895      -0.00191865      -0.01243832       0.00818226
Ti       2.28305943       3.12573966      26.43779154       0.00783214      -0.00819208      -0.01111119
Ti       4.83112766       8.00031984      26.44609025       0.00247154      -0.00774466      -0.00846816
Ti       1.50430956       5.80282454      27.14501740       0.00355231       0.01010364      -0.01547231
Ti       4.04531923       0.93703020      27.14759127       0.00133730       0.00752803      -0.00702371
Ti       4.91309213       3.59481688      27.73510449      -0.01453303       0.00170139      -0.01323519
Ti       2.36563387       8.46587671      27.73974839      -0.00489757       0.00411840      -0.01867944
Ti       1.38358503       1.32523194      28.48836841       0.00108110      -0.00563541      -0.00665815
Ti       3.92713493       6.19470072      28.48755975       0.00307180      -0.00442398      -0.01063129
Ti       2.15296300       3.90048583      29.06538689       0.00478129       0.00084314       0.00580564
Ti       4.69477092       8.77163987      29.07261689       0.00149368       0.00483157      -0.00364799
Ti       4.08204868       1.94256511      29.65102650       0.00072220      -0.00360566      -0.00483286
Ti       1.53557958       6.80612530      29.64790378       0.00054168      -0.00536964       0.00594491
