52
Lattice="4.6568 0.0 0.0 0.0 7.770572 0.0 0.0 0.0 41.044546" Properties=species:S:1:pos:R:3:forces:R:3 job_name=Segregation-1sol-addvac-CSL7-V-V-25-d-0.00 top_level=Segregation-1sol-addvac solute=V energy=-394.32124357 stress_kbar_3x3="_JSON [[-15.26353944, 0.08700311, 0.52904818], [0.08700312, -17.95076843, -0.03703219], [0.52904818, -0.03703218, -2.15653278]]" pbc="T T T"
Ti       2.28540626       7.26756144       8.70782579      -0.00297414      -0.00548332       0.00619423
Ti       4.62085468       5.38036342       8.96953693      -0.00280579      -0.00481205      -0.01544461
Ti       2.28717774       2.25758087       9.48549057      -0.00274492       0.00186654      -0.00136891
Ti       4.61642566       0.55252190       9.82459416      -0.00165448       0.01181653       0.00916872
Ti       2.28970391       4.98797442      10.44797066      -0.00203294      -0.01127251       0.01382255
Ti       4.61653093       3.39299395      10.76170361      -0.00276030      -0.00196535       0.01333770
Ti       2.28866904       0.10552771      11.37015692      -0.00062175       0.00044159       0.00637368
Ti       4.61733114       6.14445786      11.62495632      -0.00062644       0.00670855       0.00363435
Ti       2.28564584       2.79124571      12.29598830      -0.00132047       0.00004701       0.00409194
Ti       4.61520738       1.12406745      12.66002750      -0.00090283       0.00733743      -0.00295923
Ti       2.28191203       5.59105888      13.21285982      -0.00129166      -0.00517964      -0.00451202
Ti       4.60760299       3.92323415      13.60226305      -0.00116538       0.00588404      -0.00366489
Ti       2.28628870       0.58460818      14.24313928      -0.00442997       0.00186724      -0.00427545
Ti       4.61397685       6.67623045      14.50105738      -0.00084517       0.00472547       0.00014447
Ti       2.27321558       3.34186597      15.17815494      -0.00035295      -0.00091695       0.00912983
Ti       4.61920897       1.70081680      15.52831087      -0.00516603      -0.00016778       0.00795487
Ti       2.28422102       6.11015932      16.03740858      -0.00135243      -0.00394792       0.01519904
Ti       4.57012515       4.45854121      16.49969147       0.00521492      -0.01064182       0.00703485
Ti       2.31876593       1.11618127      17.09869395      -0.00429722       0.00655199       0.00080696
Ti       4.59656801       7.24414572      17.30465247      -0.00728403       0.00135667       0.00962862
Ti       2.18726190       3.81573274      18.08731703       0.00109014      -0.00716004       0.00575144
Ti       0.11916818       2.15108351      18.49869256       0.00024417       0.00180730       0.00944522
Ti       2.16547723       6.60138044      18.73740078       0.00823653      -0.00121051       0.00413370
Ti       4.16294798       4.85122408      19.33949066       0.00678562      -0.00033149       0.00486735
V        0.35661918       7.73015430      20.04198177      -0.00251621       0.00741687       0.00367876
Ti       2.68873424       1.55872296      20.04748441      -0.00055734      -0.00096826       0.00250443
Ti       1.21493752       4.85219410      20.75492308      -0.00414843      -0.00177411       0.00189087
Ti       3.21432546       6.60664794      21.35641149      -0.00607145       0.00767129       0.00345639
Ti       0.60327692       2.15227904      21.59381940      -0.00240240      -0.00403706      -0.00574818
Ti       3.19265123       3.81731202      22.01047813      -0.00081913      -0.00172667      -0.00793735
Ti       0.78840908       7.24988570      22.78580638       0.00375751       0.00637578      -0.00642192
Ti       3.06830827       1.11737684      23.00172005       0.00090265       0.00714306       0.00283058
Ti       0.80779781       4.46329164      23.59219532      -0.00545243      -0.00832151      -0.00372511
Ti       3.09891613       6.11599186      24.05091263      -0.00163738      -0.00067775      -0.00665254
Ti       0.76161649       1.70394050      24.56682033       0.00467700      -0.00694006      -0.00557517
Ti       3.10943209       3.34839606      24.91399526      -0.00146687       0.00006824      -0.00729074
Ti       0.76570806       6.67156135      25.59150669       0.00087302       0.00659617      -0.00461176
Ti       3.09223550       0.58578870      25.86649272       0.00470421       0.00132312      -0.00044407
Ti       0.77122254       3.91709346      26.48737487       0.00188210      -0.00347722      -0.00129772
Ti       3.09720604       5.57179927      26.86450873       0.00265893      -0.00207091      -0.00126932
Ti       0.76203264       1.14892220      27.46086411       0.00226626       0.00820419       0.00048890
Ti       3.09112034       2.81650204      27.78808610       0.00177218      -0.00636723      -0.00139917
Ti       0.76217141       6.10526450      28.42984504       0.00234518       0.00134364      -0.00102149
Ti       3.08789013       0.01698413      28.74528191       0.00158811      -0.00140794      -0.00952248
Ti       0.75986682       3.37271730      29.38307300       0.00246864       0.00173402      -0.00413871
Ti       3.08877122       5.08892125      29.70970091       0.00400987      -0.00406636      -0.00888181
Ti       0.75689928       0.62081272      30.29098591       0.00279398      -0.00936359      -0.01209304
Ti       3.08570352       2.21995442      30.57462766       0.00153010      -0.00162163      -0.01544528
Ti       0.75821473       5.53449581      31.24560593       0.00244931       0.00798954      -0.01671236
Ti       3.08422706       7.25112418      31.55787158       0.00225783       0.01080686       0.00088948
Ti       3.08481011       4.49765283      32.36704458       0.00317854      -0.00073500       0.00003815
Ti       0.75568006       2.62428253      32.06139444       0.00201378      -0.01043847       0.00591624
