52
Lattice="4.6568 0.0 0.0 0.0 7.770572 0.0 0.0 0.0 41.044546" Properties=species:S:1:pos:R:3:forces:R:3 job_name=Segregation-1sol-addvac-CSL7-Al-Al-28-d-1.62 top_level=Segregation-1sol-addvac solute=Al energy=-390.07226846 stress_kbar_3x3="_JSON [[-14.29726612, -0.41426468, -0.92668978], [-0.41426468, -17.17710629, 0.20319269], [-0.92668979, 0.20319268, -0.98804914]]" pbc="T T T"
Ti       0.06248269       2.61982595       8.96586201       0.00310130       0.00305866      -0.00214448
Ti       2.38287642       4.50022383       8.66011070       0.00313300      -0.00120418      -0.00240332
Ti       2.38672593       7.26450318       9.47243617       0.00352202      -0.00478121      -0.00787507
Ti       0.05676433       5.53994613       9.77820232       0.00406556      -0.00074207      -0.00278995
Ti       2.39044661       2.22348948      10.45265475       0.00365256       0.00009834       0.00359566
Ti       0.06233836       0.62652555      10.74275755       0.00374584      -0.00114065      -0.00022039
Ti       2.38745214       5.09451976      11.30831796       0.00347660      -0.00582322       0.00235660
Ti       0.06334826       3.38033294      11.63964731       0.00323351      -0.00084885      -0.00324466
Ti       2.39202783       0.02018522      12.28911322       0.00340802       0.00097289       0.00416402
Ti       0.06462136       6.10758733      12.58896573       0.00308723      -0.00183144       0.00486071
Ti       2.39686742       2.81870627      13.22854418       0.00313465       0.00274070       0.00070794
Ti       0.06995832       1.15939011      13.56950699       0.00286884       0.00142280       0.00377853
Ti       2.39622834       5.57043716      14.15097687       0.00227639      -0.00104201       0.00643295
Ti       0.06762099       3.91850483      14.53171572       0.00246160       0.00055365       0.00528923
Ti       2.40547627       0.59012626      15.17068541       0.00211043      -0.00382227       0.00856497
Ti       0.07838470       6.67049785      15.41986084       0.00303688       0.00048067       0.00797010
Ti       2.39254626       3.35530666      16.09526812       0.00225014      -0.00376071       0.00616059
Ti       0.08393985       1.71583127      16.48250209       0.00109943      -0.00228811       0.00532396
Ti       2.42488777       6.11704947      16.95875643       0.00213000      -0.00287467       0.00494485
Ti       0.03781953       4.46927186      17.43389172       0.00114044      -0.00237173       0.00234030
Ti       2.44000088       1.12106101      18.07193974       0.00009128       0.00076512       0.00280174
Ti       0.08128801       7.24403257      18.20365638       0.00017240       0.00129798       0.00285400
Ti       2.31152886       3.77504067      18.95855958      -0.00013419      -0.00178792       0.00123276
Ti       0.23372986       2.16651925      19.47185771      -0.00115283       0.00004368       0.00284128
Ti       2.32541190       6.59740861      19.63853016       0.00089924       0.00223993       0.00453629
Ti       4.15831581       4.82201267      20.29631134      -0.00592381      -0.00369079      -0.00109754
Ti       2.80814460       1.58859386      21.02355408       0.00127079       0.00295290      -0.00419865
Ti       0.41867217       7.59960446      21.03785856      -0.00132117       0.00213570      -0.00130553
Ti       1.27571573       4.76619731      21.63993856       0.01065398      -0.00093106       0.00057474
Ti       3.12100679       6.47960002      22.36301620      -0.00089229      -0.00048417      -0.00632290
Al       0.63824630       2.17998850      22.58721127      -0.00008816       0.00338154      -0.00354736
Ti       3.08066444       3.72093779      23.06923556      -0.00050351      -0.00247903      -0.00336602
Ti       0.67935945       7.20588457      23.77026125      -0.00076570       0.00241714      -0.00768572
Ti       2.99505090       1.09453692      23.88437109      -0.00160083      -0.00244579      -0.00612474
Ti       0.70175393       4.44281453      24.55846386      -0.00133444       0.00024185      -0.01014489
Ti       2.99637351       6.10841514      25.03537348      -0.00346753      -0.00197602      -0.00891141
Ti       0.67264062       1.72647208      25.50339223      -0.00173344       0.00265660      -0.00285062
Ti       3.01191987       3.36057390      25.92383232      -0.00235197       0.00262202      -0.00739094
Ti       0.69957453       6.69515251      26.56284881      -0.00242492       0.00106973      -0.00710329
Ti       3.02953152       0.60501008      26.80441006      -0.00225812       0.00135549      -0.00761985
Ti       0.69755426       3.94717537      27.47476960      -0.00314669       0.00291282      -0.00240164
Ti       3.03483638       5.61711824      27.86539003      -0.00269826       0.00511240      -0.00152823
Ti       0.70431505       1.15181615      28.38394568      -0.00373249      -0.00104917      -0.00405639
Ti       3.03523730       2.81164611      28.79315705      -0.00309724       0.00393298      -0.00584140
Ti       0.70589736       6.17394911      29.43991152      -0.00397515       0.00068387       0.00321802
Ti       3.03688526       0.13003056      29.68616464      -0.00453544      -0.00305074      -0.00315717
Ti       0.70817366       3.42513516      30.30041238      -0.00417630       0.00452574       0.00142347
Ti       3.03644792       5.01816035      30.61786922      -0.00361851       0.00120687      -0.00052601
Ti       0.71302637       0.59268200      31.22142165      -0.00448197       0.00340568       0.00423765
Ti       3.04262309       2.28949823      31.58636514      -0.00365259      -0.01169781       0.00790800
Ti       0.70517598       5.41378043      32.09622523      -0.00388982       0.00908444       0.00854480
Ti       3.04858456       7.29754114      32.34820655      -0.00306476      -0.00124857       0.00719501
