64
Lattice="5.871999 0.0 0.0 0.0 6.890708 0.0 0.0 0.0 43.401158" Properties=species:S:1:pos:R:3:forces:R:3 job_name=Segregation-1sol-addvac-T1m-Al-Al-32-d-0.00 top_level=Segregation-1sol-addvac solute=Al energy=-482.99094045 stress_kbar_3x3="_JSON [[-5.92519488, 0.00029889, -0.00077797], [0.00029887, -17.07996253, -0.49883578], [-0.00077796, -0.49883577, -2.71262218]]" pbc="T T T"
Ti       2.93602025       6.86900289       8.89774775      -0.00008823       0.00062497       0.00643485
Ti      -0.00000669       6.86921006       8.90301301       0.00020987       0.00035370       0.00654940
Ti       0.00001987       3.06045064       9.29836922      -0.00005400       0.00414911       0.00498879
Ti       2.93602031       3.06294252       9.29185951       0.00010331       0.00417774       0.00435227
Ti       1.47323182       5.20957177      10.47992159      -0.00091490      -0.00287396       0.01531151
Ti       4.39879603       5.20954743      10.47993461       0.00093504      -0.00285312       0.01524972
Ti       1.46933488       1.25869793      10.85219968      -0.00021231      -0.00087874       0.01328132
Ti       4.40271130       1.25866924      10.85218570       0.00014139      -0.00076862       0.01346562
Ti      -0.00000085       3.35520913      12.12218493       0.00004163       0.00669543       0.00439840
Ti       2.93600167       3.35785604      12.12156606       0.00002882       0.00682678       0.00465807
Ti       2.93600702       6.29193272      12.64703419       0.00005898      -0.00098122       0.00310043
Ti       0.00001684       6.29258294      12.64598587      -0.00022195      -0.00027575       0.00266420
Ti       1.46634875       1.54930220      13.78173081      -0.00013217      -0.00259705       0.00895823
Ti       4.40566096       1.54929870      13.78176598       0.00019153      -0.00262648       0.00872157
Ti       1.46778618       4.40488522      14.35178317      -0.00063393       0.00551674       0.00433505
Ti       4.40422466       4.40486788      14.35179383       0.00068316       0.00563912       0.00428864
Ti       2.93601112       6.57189729      15.50992613       0.00004310      -0.00366983      -0.00097008
Ti       0.00000176       6.56921969      15.51067370      -0.00007674      -0.00436801      -0.00035678
Ti       2.93600240       2.53317696      16.04446227       0.00001553       0.00072150       0.00110828
Ti       0.00000987       2.52903492      16.04839819      -0.00011361       0.00123295       0.00061110
Ti       1.47725379       4.68595837      17.18833983       0.00196632       0.00167194      -0.00006967
Ti       4.39473922       4.68597041      17.18832373      -0.00191437       0.00159712      -0.00001235
Ti       4.40699998       0.71551902      17.76620387      -0.00047809       0.00124695       0.00120079
Ti       1.46502472       0.71553444      17.76619571       0.00045417       0.00115162       0.00128276
Ti       2.93599301       2.88787083      18.94371252       0.00007351       0.00099956       0.00242975
Ti       0.00000225       2.85400492      18.98020767      -0.00005223       0.00302060       0.00053148
Ti       0.00001342       5.69130171      19.39265803      -0.00006062       0.00083946      -0.00152343
Ti       2.93601197       5.74197322      19.43525593       0.00002821       0.00067356      -0.00668246
Ti       1.46567788       0.89502560      20.58433680      -0.00220887       0.00094989       0.00228218
Ti       4.40632830       0.89503649      20.58434148       0.00221751       0.00084577       0.00225281
Ti       1.49068655       4.05540076      21.15548769      -0.00103439      -0.00301615      -0.00184997
Ti       4.38132078       4.05540785      21.15549482       0.00109286      -0.00298886      -0.00187080
Al       2.93599809       2.13852167      22.55241972       0.00000007       0.00616757      -0.00386169
Ti       2.93599253       6.20639482      22.54947804       0.00009041       0.00332940       0.00174258
Ti       0.00001369       2.05359520      22.55254377       0.00001618       0.00554496       0.00170080
Ti       0.00002487       6.09743088      22.54885047      -0.00018816       0.00196835       0.00097576
Ti       4.38056883       4.06222977      23.94886643      -0.00081694      -0.00418716      -0.00186240
Ti       1.49143599       4.06224978      23.94885277       0.00085704      -0.00435376      -0.00182132
Ti       4.40390988       0.90080348      24.52136936       0.00185793       0.00352486       0.00170548
Ti       1.46810886       0.90076860      24.52136818      -0.00198190       0.00378513       0.00156746
Ti       2.93600230       5.75249098      25.66829782       0.00007993       0.00055630       0.00041684
Ti      -0.00000005       5.70679891      25.70560595      -0.00000024      -0.00111907       0.00081882
Ti       0.00002372       2.86824810      26.11876812      -0.00005928      -0.00776724      -0.00118756
Ti       2.93601349       2.89940015      26.15437625       0.00006130      -0.00364725       0.00025870
Ti       1.46529515       0.74057347      27.33310610       0.00021824       0.00256532       0.00185984
Ti       4.40672149       0.74054819      27.33314638      -0.00028915       0.00275205       0.00151024
Ti       1.47686879       4.68932669      27.91545384      -0.00047536      -0.00533787       0.00020221
Ti       4.39517609       4.68932382      27.91548327       0.00043715      -0.00530537      -0.00014423
Ti       0.00000131       2.55003205      29.05684825       0.00013741      -0.00096759      -0.00644794
Ti       2.93603051       2.55434181      29.06111260      -0.00007012      -0.00171298      -0.00538472
Ti       0.00003241       6.60325360      29.59361730       0.00004989       0.00010169      -0.00991691
Ti       2.93604016       6.60517155      29.59539241      -0.00012405       0.00146619      -0.00845484
Ti       4.40534596       4.46163621      30.74126162      -0.00003676      -0.00674731      -0.00352065
Ti       1.46673145       4.46165962      30.74129038       0.00005271      -0.00688281      -0.00350285
Ti       4.40737052       1.49664055      31.28171774       0.00028345      -0.00167209      -0.00257775
Ti       1.46469333       1.49662945      31.28166560      -0.00031310      -0.00172402      -0.00238831
Ti       0.00000037       6.29634829      32.54962215       0.00030835       0.00062730      -0.01324094
Ti       2.93607207       6.29640547      32.55085505      -0.00020405       0.00145951      -0.01216897
Ti       2.93608389       3.36492821      32.89786999      -0.00021935      -0.00227713      -0.01288643
Ti       5.87198311       3.36172668      32.90365910       0.00028853      -0.00256237      -0.01230841
Ti       4.40378196       1.21327624      34.09630962      -0.00044829       0.00109959      -0.00695004
Ti       1.46832790       1.21330368      34.09635190       0.00034746       0.00102973      -0.00741223
Ti       1.46752205       5.00829923      34.49416802      -0.00024640      -0.00036313      -0.00802069
Ti       4.40454074       5.00830543      34.49423354       0.00029857      -0.00038752      -0.00782153
