64
Lattice="5.871999 0.0 0.0 0.0 6.890708 0.0 0.0 0.0 43.401158" Properties=species:S:1:pos:R:3:forces:R:3 job_name=Segregation-1sol-addvac-T1m-V-V-41-d-3.20 top_level=Segregation-1sol-addvac solute=V energy=-485.92508178 stress_kbar_3x3="_JSON [[-5.98528537, -0.09744283, -0.30354064], [-0.09744283, -9.58905272, -0.22807257], [-0.3035407, -0.22807256, -0.65511385]]" pbc="T T T"
Ti       2.97823681       6.81822464       8.60026288      -0.00463594       0.00620746       0.00395447
Ti       2.93606303       2.83013072      34.76685131       0.00058115      -0.00130939      -0.00920279
Ti       0.02471171       6.74597976       8.76103631      -0.00266833       0.00243661       0.00413344
Ti      -0.00048025       2.82986826      34.76082360      -0.00090854      -0.00068635      -0.01090332
Ti       4.30817085       4.73372813       9.57514157      -0.00663154      -0.00606155       0.01055615
Ti       1.63198116       4.71726192       9.48660365      -0.00193066      -0.01434078       0.00732085
Ti       4.41239830       1.58618920      10.19027047      -0.00239438       0.00906046       0.00095363
Ti       1.47301830       1.59312390      10.18194740       0.00034788       0.00410113      -0.00354077
Ti       2.87790678       3.59391007      11.56008739       0.00831983      -0.00518713       0.00232321
Ti       0.06995969       3.67531455      11.46668573      -0.01399701      -0.00460359      -0.00138330
Ti       2.90432418       6.49486693      11.54168171       0.00817443      -0.00259724      -0.00571769
Ti       5.85704371       6.52630836      11.67379322       0.00330423      -0.00171378      -0.00187737
Ti       1.43135082       1.65945180      12.98791340       0.00284744       0.00844240      -0.00057593
Ti       4.41270979       1.66175239      12.98122853       0.00262235       0.01053726      -0.00214696
Ti       1.44671635       4.71992618      13.58720847       0.00067037      -0.00449382      -0.01463375
Ti       4.41263451       4.71009774      13.52741405       0.00084719      -0.00567269      -0.00674710
Ti       2.93878878       6.85931173      14.67492801      -0.00051038       0.00434496      -0.00823443
Ti       5.85405703       6.87178800      14.70422446       0.00189247       0.00334822      -0.01008489
Ti       2.92921124       2.79384777      15.17447284       0.00239601      -0.00057211      -0.01160676
Ti       5.86462014       2.80359170      15.21193464       0.00012288      -0.00121900      -0.01177294
Ti       4.39272847       4.97185529      16.33743233       0.00028307      -0.00153430      -0.00272642
Ti       1.47065711       4.96730910      16.36921214       0.00072995       0.00009551      -0.00669604
Ti       4.39409539       0.96551176      16.92974961       0.00102005      -0.00014921       0.00032429
Ti       1.46784590       0.97113984      16.93047763       0.00063794      -0.00081005       0.00168754
Ti       5.86649429       3.14241952      18.10027225       0.00117935       0.00039626       0.00504779
Ti       2.93675817       3.14641881      18.08800576      -0.00047893       0.00098634       0.00785243
Ti       5.86548839       5.97086840      18.60130619       0.00140122      -0.00012142       0.00829868
Ti       2.93702336       5.96109890      18.60953150      -0.00044755      -0.00136829       0.00778457
Ti       1.47218376       1.23891067      19.76049563      -0.00051849      -0.00029553       0.01028425
Ti       4.39795236       1.23811185      19.76074564       0.00061545      -0.00064120       0.01018113
Ti       1.46612291       4.15115272      20.32992850       0.00011070      -0.00078183       0.00796723
Ti       4.40255962       4.14974680      20.33381379       0.00029995      -0.00077625       0.00657129
Ti       2.93474739       2.25801853      21.96684813      -0.00026514      -0.00129876       0.00376980
Ti       5.87173663       2.25456887      21.98210296       0.00057764      -0.00088357       0.00430409
Ti       2.93495832       6.29621750      21.54562180       0.00000370       0.00018605       0.00358004
Ti       5.87153940       6.31667968      21.51861305      -0.00001112       0.00296177       0.00437837
Ti       4.46519477       4.36333770      23.15943758      -0.00019118      -0.00404340       0.00037864
Ti       1.40576123       4.36415571      23.15766906      -0.00012925      -0.00434327       0.00062212
Ti       4.42846901       0.56381710      23.69653555       0.00000095       0.00594942      -0.00933668
Ti       1.44235353       0.56369197      23.69700164      -0.00017112       0.00575512      -0.00914237
Ti       2.93567551       5.50351776      25.08499041      -0.00024205      -0.00289159      -0.01812325
V        5.87146590       5.63045187      25.08400763       0.00038937      -0.00329598      -0.01693690
Ti       2.93561975       2.62327408      25.08482506      -0.00021325      -0.00339736      -0.00619065
Ti       0.00023703       2.70528298      25.08693760      -0.00004275      -0.00381437      -0.00854343
Ti       4.42895610       0.56603778      26.48354758      -0.00231442       0.01061902      -0.00176225
Ti       1.44284310       0.56570856      26.48406802       0.00194389       0.01051367      -0.00206571
Ti       4.46653793       4.38451728      27.00772856      -0.00196896      -0.00789239       0.00694277
Ti       1.40492727       4.38471458      27.00799729       0.00170459      -0.00735812       0.00692340
Ti       5.87185572       2.27449818      28.18020107      -0.00020357       0.00135384       0.01429839
Ti       2.93589291       2.27640078      28.19551285      -0.00008636       0.00184896       0.01259453
Ti       5.87186242       6.33974580      28.65131913      -0.00009465       0.00397851       0.01760627
Ti       2.93590093       6.31639213      28.62267359      -0.00009721       0.00080389       0.01899639
Ti       1.46749249       4.16016998      29.84248968      -0.00156009      -0.00046939       0.00435292
Ti       4.40439212       4.16020615      29.84238777       0.00110790      -0.00084847       0.00452546
Ti       1.47173203       1.24903160      30.38360851      -0.00018333       0.00110354       0.00414418
Ti       4.40010242       1.24903359      30.38376395      -0.00021391       0.00091328       0.00409655
Ti       2.93584003       5.97901360      31.57872047      -0.00027034       0.00408110       0.00312546
Ti       0.00000057       5.98419868      31.58344358       0.00000231       0.00274921       0.00791262
Ti       2.93603216       3.10969164      32.03707025       0.00000136      -0.00595751       0.00470517
Ti       5.87188391       3.10826621      32.03137683      -0.00018750      -0.00672235       0.00299326
Ti       4.40271521       1.01665045      33.17414896       0.00144155      -0.00368476      -0.01063588
Ti       1.46904821       1.01678323      33.17389864      -0.00180298      -0.00416034      -0.01078231
Ti       4.39658481       4.95192124      33.77153701      -0.00013041       0.00617164      -0.01197289
Ti       1.47527766       4.95178222      33.77144775      -0.00007584       0.00705152      -0.01214864
