64
Lattice="5.871999 0.0 0.0 0.0 6.890708 0.0 0.0 0.0 43.401158" Properties=species:S:1:pos:R:3:forces:R:3 job_name=Segregation-1sol-addvac-T1m-Al-Al-48-d-6.60 top_level=Segregation-1sol-addvac solute=Al energy=-482.94300722 stress_kbar_3x3="_JSON [[-6.8219727, -0.00055557, 0.00045598], [-0.00055553, -15.49496884, -0.63792628], [0.00045598, -0.6379263, -1.13925265]]" pbc="T T T"
Ti       1.46813676       5.01109155       8.90695376      -0.00030786       0.00301971       0.00870722
Ti       4.40393197       5.01104252       8.90668603       0.00011767       0.00348981       0.00794234
Ti       4.40390010       1.21845564       9.30926440       0.00004191       0.00030564      -0.01813051
Ti       1.46813821       1.21832706       9.30962261      -0.00001510       0.00048588      -0.01926245
Ti       2.93629053       3.36933992      10.50666097      -0.00011375       0.00397065      -0.01240631
Ti       5.87173863       3.36967639      10.50625999       0.00016450       0.00416390      -0.01249474
Ti       2.93609636       6.30051273      10.85180485      -0.00010561      -0.00353328      -0.00975153
Ti       5.87194699       6.30070486      10.85140499       0.00024815      -0.00399676      -0.00882250
Ti       4.40451623       1.49996334      12.11588353       0.00048058       0.01176564       0.00680100
Ti       1.46752197       1.49978399      12.11603792      -0.00035910       0.01150632       0.00684540
Ti       4.40424624       4.46866946      12.66184610       0.00068330       0.00595397       0.00904501
Ti       1.46778683       4.46872429      12.66161529      -0.00065810       0.00663417       0.00930375
Ti      -0.00002769       6.61933586      13.81108056      -0.00028221      -0.00777743       0.00835813
Ti       2.93602349       6.61896007      13.81147115       0.00033957      -0.00909189       0.00854491
Ti       2.93608723       2.56510408      14.33954988      -0.00003851       0.00573932      -0.00193748
Ti      -0.00004178       2.56435279      14.34121207       0.00008021       0.00446189      -0.00155932
Ti       4.40474062       4.70683824      15.48699266      -0.00022033       0.00287502      -0.00979754
Ti       1.46730383       4.70684115      15.48676138       0.00021253       0.00247154      -0.00926417
Ti       4.40488882       0.75869403      16.06024791      -0.00011888      -0.00453110       0.00112420
Ti       1.46716158       0.75868134      16.06022273       0.00012761      -0.00421245       0.00085177
Ti       2.93597689       2.90841766      17.26245628       0.00005773       0.00241714       0.00648594
Ti       0.00005213       2.90877672      17.26534004       0.00002604       0.00248203       0.00608063
Ti       2.93597832       5.74664213      17.70471451       0.00011450       0.00237658       0.00828392
Ti       0.00005077       5.74834844      17.70728999      -0.00005058       0.00328649       0.00946799
Ti       1.47264271       0.95343203      18.85781555      -0.00097505       0.00077850       0.00649538
Ti       4.39938728       0.95337123      18.85786152       0.00097647       0.00082807       0.00658538
Ti       1.46874928       4.09486959      19.45738139      -0.00051435       0.00255331      -0.00999270
Ti       4.40328733       4.09492092      19.45732481       0.00034995       0.00234482      -0.00983752
Ti       2.93602727       6.19328836      20.82622424      -0.00003005       0.00560702      -0.00484812
Ti       0.00002286       6.19106084      20.84102927       0.00002510       0.00740003      -0.00523059
Ti       0.00000059       2.14618315      20.89807485      -0.00004983      -0.00993747      -0.00755565
Ti       2.93601326       2.15587335      20.90515842       0.00018545      -0.00727148      -0.00629837
Ti       4.41603861       4.12656087      22.25629033       0.00027986      -0.00290359       0.01371605
Ti       1.45600830       4.12653624      22.25630682      -0.00029629      -0.00262522       0.01369062
Ti       1.46908463       0.87111985      22.86432534      -0.00015763       0.00018425       0.01301920
Ti       4.40295301       0.87110836      22.86431727       0.00005244       0.00022896       0.01303749
Ti       2.93602243       5.69852826      24.06307524       0.00022783       0.00257765       0.01604320
Ti       0.00001584       5.68235880      24.08332875      -0.00031586       0.00298186       0.01959812
Ti       2.93601918       2.86166307      24.36347090       0.00010457       0.00046724       0.00503852
Ti       0.00003095       2.85719422      24.42496363      -0.00011754       0.00289920       0.00448504
Ti       4.39081130       0.70876708      25.67740410       0.00129361      -0.00642946      -0.00725180
Ti       1.48124680       0.70875828      25.67740364      -0.00129886      -0.00627724      -0.00708038
Ti       4.42283575       4.62178837      26.22159790       0.00373324      -0.00076616      -0.00987133
Ti       1.44916798       4.62177377      26.22159086      -0.00367030      -0.00099482      -0.00989030
Ti       2.93600573       2.45727990      27.34716070      -0.00003925      -0.00103538      -0.00813237
Al       0.00000118       2.48697858      27.34267179       0.00009325       0.00297222      -0.00671249
Ti       0.00004415       6.57975801      27.88247707      -0.00006514      -0.00464395       0.00009100
Ti       2.93600099       6.47658955      27.88442323      -0.00000147      -0.00061407      -0.00496780
Ti       1.43455342       4.35070707      29.02517398       0.00189056      -0.00024133       0.00320761
Ti       4.43746209       4.35073309      29.02515848      -0.00177916      -0.00068345       0.00319546
Ti       1.45041054       1.51787618      29.60034527      -0.00469158      -0.00767933       0.00205768
Ti       4.42162877       1.51781143      29.60030528       0.00455021      -0.00728063       0.00259550
Ti       0.00002226       6.28481610      30.71469515      -0.00020393       0.00800463      -0.01162256
Ti       2.93599105       6.27061130      30.74174433       0.00020707       0.00464970      -0.00735903
Ti       2.93606716       3.33462689      31.24696309      -0.00000461       0.00133984      -0.01688719
Ti      -0.00001635       3.34894859      31.29592508      -0.00005840      -0.00212973      -0.01911744
Ti       4.39929207       1.24443974      32.52521664      -0.00054360      -0.00758424      -0.00416434
Ti       1.47270705       1.24436513      32.52510814       0.00042305      -0.00742408      -0.00389976
Ti       4.41142299       5.19958353      32.91340878      -0.00029217       0.00140089       0.00695523
Ti       1.46057890       5.19965382      32.91346755       0.00033069       0.00123365       0.00672250
Ti       2.93604053       3.04816825      34.06640446       0.00010227      -0.00064696       0.01620559
Ti      -0.00004542       3.05314586      34.09625432      -0.00018152       0.00004529       0.01930938
Ti       0.00000197       6.86482357      34.49042974      -0.00026561      -0.00725728       0.00105653
Ti       2.93599276       6.86967182      34.48326831       0.00030230      -0.00833411      -0.00680138
