64
Lattice="5.871999 0.0 0.0 0.0 6.890708 0.0 0.0 0.0 43.401158" Properties=species:S:1:pos:R:3:forces:R:3 job_name=Segregation-1sol-addvac-T1m-Al-Al-38-d-2.03 top_level=Segregation-1sol-addvac solute=Al energy=-482.92014675 stress_kbar_3x3="_JSON [[-7.88390994, -0.00020241, -0.00015675], [-0.0002024, -20.05416077, -0.37271537], [-0.00015679, -0.37271537, -2.57392316]]" pbc="T T T"
Ti       1.46801280       5.01439007       8.86602185      -0.00002118       0.00084456       0.00291710
Ti       4.40399782       5.01381581       8.86744210      -0.00001230       0.00109486       0.00315154
Ti       1.46801318       1.22036194       9.26665372       0.00005083       0.00054530       0.00143086
Ti       4.40401834       1.21965997       9.27171041      -0.00005030       0.00039161       0.00006666
Ti       0.00202256       3.37569983      10.46716264      -0.00018932       0.00782529      -0.00707259
Ti       2.93402968       3.37571230      10.46715402       0.00017368       0.00775779      -0.00701079
Ti       5.87169825       6.30012783      10.81365552      -0.00012042      -0.00510724      -0.00155174
Ti       2.93631349       6.30010917      10.81363036       0.00013298      -0.00503778      -0.00153277
Ti       1.46801256       1.50460820      12.07749196       0.00002165      -0.00217617       0.00271426
Ti       4.40401609       1.50100478      12.08245895      -0.00003616      -0.00160233       0.00306413
Ti       1.46801648       4.47269561      12.63240266       0.00005448       0.00350240       0.00178203
Ti       4.40402011       4.47165950      12.63173675      -0.00002232       0.00351733       0.00195628
Ti       2.93271189       6.62137452      13.78098573       0.00053855      -0.00405887       0.00157957
Ti       0.00334042       6.62136708      13.78098668      -0.00055324      -0.00402598       0.00159194
Ti       2.93325133       2.56350265      14.30682898       0.00031374       0.00248046       0.00317112
Ti       0.00278398       2.56350288      14.30682226      -0.00033952       0.00247600       0.00326182
Ti       1.46801463       4.70994153      15.45518373      -0.00003999      -0.00025182      -0.00492432
Ti       4.40401643       4.70542992      15.45300639       0.00002666      -0.00031620      -0.00488567
Ti       4.40401208       0.75498405      16.01670640       0.00002725      -0.00014424      -0.00388997
Ti       1.46801508       0.75301293      16.04927272      -0.00003210      -0.00015551      -0.00357872
Ti       2.93302163       2.91297911      17.24481511      -0.00001384      -0.00030710       0.00338192
Ti       0.00298877       2.91298381      17.24482963       0.00001243      -0.00027872       0.00334389
Ti       0.00916796       5.73116363      17.68571342      -0.00040507      -0.00170516       0.00229409
Ti       2.92685394       5.73117535      17.68573457       0.00039553      -0.00169553       0.00224559
Ti       4.40401713       0.95913982      18.78018033       0.00000329       0.00251758       0.00431720
Ti       1.46798984       0.94556987      18.84743449      -0.00000306       0.00357608       0.00471496
Ti       4.40401833       4.08882542      19.43946236       0.00001918      -0.00300207       0.00924052
Ti       1.46799492       4.09276185      19.44255540      -0.00002581      -0.00578514       0.00850274
Ti       5.82338030       2.10141416      20.84336276       0.00610789       0.00440420      -0.00005563
Ti       2.98461989       2.10139332      20.84337430      -0.00612428       0.00446640      -0.00002368
Ti       5.86046866       6.19555073      20.85117221       0.00217644      -0.00437838       0.00038045
Ti       2.94751313       6.19556187      20.85118809      -0.00219078      -0.00434355       0.00050083
Ti       1.46799499       4.07862467      22.24405693       0.00004250      -0.00079237      -0.00234264
Ti       4.40399357       3.97094775      22.27727626      -0.00006029       0.00247692      -0.00597663
Al       4.40394885       0.93844360      22.86945024       0.00023617       0.00124274      -0.00925948
Ti       1.46801102       0.94709430      22.90268889       0.00010028      -0.00078787      -0.00105747
Ti      -0.00699262       5.71374835      24.01936390      -0.00047217       0.00130598      -0.00428660
Ti       2.94301000       5.71376560      24.01936157       0.00043186       0.00123758      -0.00425578
Ti       2.91939765       2.84908129      24.46013772       0.00052598      -0.00248098      -0.00154648
Ti       0.01660894       2.84906523      24.46016453      -0.00052792      -0.00251978      -0.00146043
Ti       4.40403476       0.67347924      25.66066951      -0.00002650       0.00183613      -0.00469256
Ti       1.46800169       0.68781824      25.73627707      -0.00001892       0.00166256      -0.00253198
Ti       4.40401870       4.69597506      26.20026223      -0.00003397      -0.00028488      -0.00025259
Ti       1.46799020       4.65586046      26.23035118       0.00002128       0.00031940      -0.00070000
Ti       2.95477295       2.50950631      27.38806332       0.00002235      -0.00093884      -0.00194619
Ti       5.85326763       2.50950177      27.38806086      -0.00004617      -0.00098026      -0.00195592
Ti       2.94699652       6.53605175      27.91923275       0.00031381      -0.00089328       0.00019173
Ti       5.86102654       6.53606170      27.91929313      -0.00032099      -0.00090212       0.00021432
Ti       4.40400624       4.38209839      29.07335978       0.00000635       0.00096285       0.00290057
Ti       1.46804532       4.37922267      29.08340156      -0.00001662       0.00101872       0.00222741
Ti       1.46803356       1.52351263      29.63245943       0.00004838       0.00050238       0.00117447
Ti       4.40402311       1.52737399      29.64906362      -0.00003587       0.00047877       0.00042660
Ti       2.93475861       6.26945488      30.77860124       0.00037142      -0.00408282      -0.00684127
Ti       0.00130069       6.26947106      30.77868207      -0.00038383      -0.00401514      -0.00683883
Ti       0.00021477       3.33788456      31.30675597      -0.00005601       0.00262932      -0.00283393
Ti       2.93585259       3.33790318      31.30678814       0.00005475       0.00262011      -0.00271197
Ti       1.46805149       1.23584074      32.56651778      -0.00002705      -0.00155553       0.01041243
Ti       4.40401581       1.24133021      32.57537912      -0.00001251      -0.00088594       0.01034301
Ti       1.46810974       5.19378635      32.94978064       0.00001219       0.00323472       0.00835334
Ti       4.40394325       5.19319673      32.95160286      -0.00001494       0.00299918       0.00827541
Ti       0.00255599       3.04148940      34.13014321      -0.00002142       0.00020849      -0.00122997
Ti       2.93351035       3.04153866      34.13024829       0.00002450       0.00019519      -0.00131162
Ti       0.00193778       6.85821244      34.53109876       0.00013708      -0.00243776      -0.00573257
Ti       2.93413575       6.85818791      34.53124015      -0.00014859      -0.00240157      -0.00583800
