52
Lattice="4.6568 0.0 0.0 0.0 7.770572 0.0 0.0 0.0 41.044546" Properties=species:S:1:pos:R:3:forces:R:3 job_name=Segregation-1sol-addvac-CSL7-V-V-26-d-0.72 top_level=Segregation-1sol-addvac solute=V energy=-393.73580258 stress_kbar_3x3="_JSON [[-11.86503677, -0.24744122, -0.54746683], [-0.24744119, -16.63486924, 1.016774], [-0.54746685, 1.01677394, -0.40813919]]" pbc="T T T"
Ti       2.34449795       7.02729309       8.98882812       0.00263077       0.00453092      -0.00247468
Ti       0.01629123       5.50368291       9.44863542      -0.00220934      -0.00356705       0.01450569
Ti       2.34922248       2.32869279      10.05707417      -0.00094390      -0.00473138       0.01082797
Ti       0.02294626       0.47655398      10.30996322       0.00508180      -0.00776308       0.00526551
Ti       2.34771350       5.00294984      10.93094646       0.00101932      -0.00801360       0.00262240
Ti       0.02089399       3.33859680      11.21083147       0.00703385      -0.00312228      -0.00385490
Ti       2.35522871       0.02581147      11.76365895      -0.00301645      -0.00031184      -0.00305905
Ti       0.02388500       6.09585122      12.18635455       0.00215851      -0.00363814      -0.01391828
Ti       2.35270665       2.77598109      12.80174695      -0.00124469      -0.00362617      -0.00664417
Ti       0.02729861       1.08496588      13.09792526       0.00302686      -0.00160484      -0.00643904
Ti       2.35126060       5.56607106      13.73221195       0.00185491       0.00017379      -0.00035667
Ti       0.02484622       3.87898225      14.08860853       0.00088016       0.00052068      -0.00183787
Ti       2.35964785       0.54336944      14.70488310       0.00056481      -0.00746706       0.00317672
Ti       0.03174444       6.62849121      15.00648681      -0.00001349      -0.00018965       0.00985886
Ti       2.35934067       3.30927723      15.69077771       0.00149281      -0.00578899       0.01279769
Ti       0.04732213       1.66225809      15.98602796      -0.00028273      -0.00226139       0.01193447
Ti       2.36581829       6.07160537      16.52939491      -0.00081531       0.00085523       0.01276027
Ti       0.00167614       4.42008569      16.99668294       0.00178309      -0.00346574       0.00634670
Ti       2.39825473       1.08078548      17.58984189       0.00088262       0.00371754      -0.00232716
Ti       0.04895475       7.19718593      17.76034835       0.00453949      -0.00620304       0.00016385
Ti       2.24346854       3.79361336      18.62353689      -0.00161345      -0.00278479      -0.00288613
Ti       0.13934565       2.14451471      18.91646147       0.00358608       0.00371020      -0.00488126
Ti       2.29297810       6.55684368      19.22681464       0.00155167      -0.00217225      -0.00863269
Ti       4.29426172       4.82389069      19.86806567      -0.00417996      -0.00193132      -0.00694367
Ti       2.71287372       1.56708797      20.52544589       0.00273020       0.00006030      -0.00460768
Ti       0.39696413       7.64107857      20.56556301      -0.00032724      -0.00014252      -0.00123341
V        1.26918885       4.85476641      21.22780935       0.00260947      -0.00162983       0.00212705
Ti       3.11707297       6.51397723      21.91394933      -0.00092276      -0.00182724       0.00905598
Ti       0.61555726       2.24891875      22.04829684      -0.00364039       0.00681956       0.00405389
Ti       3.13656431       3.80742374      22.44080307       0.00343203      -0.00303109       0.00346107
Ti       0.69731458       7.26320237      23.33943459      -0.00089354       0.00030741       0.00354943
Ti       2.99770321       1.13203759      23.40756135      -0.00289028       0.00429805       0.00127886
Ti       0.76349438       4.54158050      24.01172048      -0.00137732       0.00309092      -0.00357799
Ti       3.03085919       6.16682440      24.60747672      -0.00122795       0.00480965      -0.00845690
Ti       0.69819843       1.75507562      24.99248179      -0.00183188       0.00319778      -0.01040736
Ti       3.05059759       3.37904224      25.34683285      -0.00192409       0.00008585      -0.01139623
Ti       0.70841318       6.71662585      26.12349784      -0.00249931       0.00309388      -0.00479948
Ti       3.04504830       0.65205464      26.31226778      -0.00179273       0.00513206      -0.00218458
Ti       0.72334721       3.94958257      26.89315460      -0.00167284       0.00319379      -0.01139368
Ti       3.04707214       5.58821590      27.39955014      -0.00445677       0.00562615       0.00020920
Ti       0.71782789       1.20863026      27.88460741       0.00092255       0.00684031      -0.00203547
Ti       3.05014965       2.88118640      28.26342124       0.00034026      -0.00086007       0.00427649
Ti       0.71747575       6.08099322      28.92767160       0.00333392       0.01175024       0.01087092
Ti       3.05135469       0.06403811      29.16041738      -0.00900071       0.00248116      -0.00326321
Ti       0.72168495       3.47868070      29.85267563      -0.00530521       0.00401801       0.01050990
Ti       3.04878450       5.17276301      30.33778777      -0.00494327       0.01458758       0.01259804
Ti       0.72289971       0.60579035      30.65395005       0.00318648       0.00289545      -0.00459300
Ti       3.05042502       2.28242802      30.94604967       0.01236399      -0.00946685       0.00149437
Ti       0.71852892       5.54624523      31.67624071       0.00070023       0.00297009      -0.01263200
Ti       3.05370135       7.67124542      32.02899788      -0.00607058       0.01162346      -0.00689738
Ti       0.72505672       2.33065495      32.43538257      -0.00731881      -0.01157856      -0.00470366
Ti       2.34273741       4.49314713       8.31895899       0.00470909      -0.01321129       0.00269226
