64
Lattice="5.872 0.0 0.0 0.0 6.890708 0.0 0.0 0.0 43.394398" Properties=species:S:1:pos:R:3:forces:R:3 job_name=Segregation-1sol-addvac-T1g-Al-Al-33-d-0.00 top_level=Segregation-1sol-addvac solute=Al energy=-482.979082 stress_kbar_3x3="_JSON [[-6.33729912, 0.0004988, 0.00039954], [0.00049876, -16.32764839, -0.14061529], [0.00039956, -0.14061528, -2.75350362]]" pbc="T T T"
Ti       0.00058171       3.40744901       8.89846023      -0.00005008       0.00081607       0.01774777
Ti       2.93534713       3.40748435       8.89852917       0.00011934       0.00057637       0.01722787
Ti       0.00054142       6.49548146       9.29967587       0.00033054       0.00606966       0.00974035
Ti       2.93542824       6.49539865       9.29977089      -0.00025834       0.00616667       0.00937964
Ti       4.40398087       1.75597719      10.48292443       0.00002188       0.00410801       0.01828224
Ti       1.46799621       1.75728806      10.49295872       0.00006719       0.00427401       0.01904635
Ti       1.46800776       4.69032370      10.84844204      -0.00018823       0.00356501       0.01558350
Ti       4.40391543       4.69076515      10.84914140       0.00009560       0.00314565       0.01525813
Ti       5.86687743       6.78700724      12.11734027      -0.00012923      -0.00495454       0.00596296
Ti       2.94108511       6.78695287      12.11734229       0.00012470      -0.00496288       0.00609981
Ti       2.93883037       2.84779643      12.65508893      -0.00014496       0.00428995      -0.00177592
Ti       5.86913318       2.84780488      12.65512936       0.00018281       0.00405347      -0.00182895
Ti       1.46801533       4.99826609      13.79841664       0.00000165       0.00336210      -0.00213828
Ti       4.40398143       4.99798967      13.80078488       0.00002480       0.00382090      -0.00128746
Ti       1.46799440       0.94866399      14.33356642      -0.00017342      -0.00114737       0.00413583
Ti       4.40399322       0.94413564      14.35467249       0.00020962      -0.00159175       0.00293998
Ti       2.92892211       3.10267925      15.48691107      -0.00170186       0.00308170       0.00274210
Ti       0.00709545       3.10269804      15.48700617       0.00165935       0.00319858       0.00244049
Ti       5.87044288       5.99757601      16.06760850       0.00082292      -0.00387051       0.00112202
Ti       2.93757998       5.99755603      16.06761596      -0.00084527      -0.00358498       0.00123500
Ti       1.46800593       1.29647158      17.19362067       0.00006711       0.00249417       0.00133769
Ti       4.40404084       1.25898341      17.25599600      -0.00008173       0.00023756       0.00176664
Ti       4.40402329       4.10263188      17.72422802       0.00000540      -0.00439525      -0.00208629
Ti       1.46798542       4.13130570      17.76210513       0.00003398      -0.00649209       0.00050219
Ti       2.91488159       6.23741796      18.89087618      -0.00134420       0.00023343      -0.00159184
Ti       0.02114385       6.23737358      18.89085032       0.00154470       0.00048459      -0.00142317
Ti       2.90003100       2.33750824      19.46416116      -0.00402745      -0.00030295       0.00055398
Ti       0.03602337       2.33752025      19.46413324       0.00402378      -0.00030120       0.00031694
Ti       1.46805039       4.53714227      20.74978425       0.00007035      -0.01033464       0.00769130
Ti       4.40403375       4.43481589      20.75470276      -0.00028550      -0.00852918       0.00616910
Ti       4.40400857       0.38930919      20.96295600      -0.00012959       0.00718980       0.00407071
Al       1.46805281       0.45551606      21.01414715      -0.00020861      -0.00737712       0.00164423
Ti       2.91364767       2.45451964      22.24121676      -0.00435806      -0.00220159      -0.00060294
Ti       0.02242101       2.45452091      22.24123669       0.00434446      -0.00227407      -0.00056999
Ti       5.83083167       5.89323668      22.81618481       0.00016198       0.00443153       0.01121262
Ti       2.97718722       5.89327274      22.81616851       0.00005623       0.00425050       0.01097514
Ti       1.46803286       3.93839408      24.06341845       0.00022194      -0.00005608      -0.00824887
Ti       4.40401885       3.89546516      24.10155281      -0.00016380       0.00018362      -0.00541174
Ti       1.46802036       1.06954400      24.32176109       0.00012983      -0.00409764      -0.00458094
Ti       4.40405498       1.05850222      24.34040240      -0.00019752      -0.00812461      -0.00364662
Ti       5.86561304       5.83784668      25.63102028       0.00004907      -0.00342760      -0.00332965
Ti       2.94245788       5.83787182      25.63104017      -0.00007390      -0.00345351      -0.00327013
Ti       0.01490247       2.80330415      26.21823114       0.00089472       0.00645874      -0.00277504
Ti       2.92116979       2.80329231      26.21825187      -0.00097450       0.00632347      -0.00297251
Ti       1.46801262       0.68345782      27.35165598       0.00000009       0.00157451      -0.00824655
Ti       4.40403157       0.68469444      27.36524706      -0.00004627       0.00009309      -0.00662008
Ti       4.40403762       4.71845979      27.86054353       0.00004759      -0.00016156      -0.00464176
Ti       1.46800250       4.72676889      27.85925558       0.00006846      -0.00067359      -0.00508937
Ti       0.00186563       2.57109944      29.03896577       0.00041576       0.00492680      -0.00424024
Ti       2.93416469       2.57114370      29.03897433      -0.00040863       0.00494078      -0.00446308
Ti       2.93598069       6.57877643      29.60990511       0.00025726      -0.00109494      -0.00265210
Ti       0.00005178       6.57880958      29.60990517      -0.00022349      -0.00093047      -0.00236819
Ti       4.40398017       4.44308132      30.74491216       0.00016483      -0.00459587       0.00215366
Ti       1.46804280       4.44421790      30.74502246      -0.00014097      -0.00550669       0.00256099
Ti       4.40402242       1.50912911      31.26201853       0.00021216       0.00365590      -0.00035896
Ti       1.46800513       1.51220349      31.26296754      -0.00032483       0.00512266      -0.00073811
Ti       0.00019948       6.30603437      32.53767625      -0.00005295      -0.00274174      -0.00584268
Ti       2.93582072       6.30604939      32.53766152       0.00004559      -0.00266980      -0.00607665
Ti       0.00039589       3.36091068      32.91693390       0.00058191      -0.00165343      -0.01929657
Ti       2.93562765       3.36090444      32.91690173      -0.00062939      -0.00170735      -0.01897289
Ti       1.46801758       1.21885025      34.09970288       0.00000491       0.00472556      -0.01525872
Ti       4.40398293       1.21803202      34.09818243       0.00014079       0.00476755      -0.01458264
Ti       1.46798864       5.02435012      34.49219194      -0.00030273      -0.00482741      -0.01648664
Ti       4.40402125       5.02381609      34.49250696       0.00026222      -0.00458003      -0.01642363
