64
Lattice="5.088765 0.0 0.0 0.0 9.739025 0.0 0.0 0.0 38.303587" Properties=species:S:1:pos:R:3:forces:R:3 job_name=Segregation-1sol-addvac-T2-Al-Al-44-d-4.19 top_level=Segregation-1sol-addvac solute=Al energy=-480.65778864 stress_kbar_3x3="_JSON [[-12.37818643, -2.11799889, 0.18587578], [-2.11799887, -13.34370103, 0.12670746], [0.18587581, 0.12670747, -1.2998657]]" pbc="T T T"
Ti       3.54624395       6.80562804       8.64440983      -0.00307358      -0.00281637      -0.00427803
Ti       0.99863982       1.93701170       8.64082054      -0.00194419      -0.00372153      -0.00701902
Ti       0.37989723       8.77142249       9.22034499      -0.00391874       0.00139004      -0.00492892
Ti       2.92447463       3.90258619       9.21860067      -0.00367022       0.00049634      -0.00582425
Ti       1.15394757       6.19395368       9.80210230      -0.00061713       0.00329813      -0.00530116
Ti       3.69558427       1.32547291       9.80134289      -0.00011965       0.00127574      -0.00613886
Ti       2.71107807       8.46599781      10.55268647       0.00657488      -0.00019242       0.00225053
Ti       0.16820791       3.59740593      10.54943369       0.00467202      -0.00071594      -0.00098421
Ti       1.02828130       0.93386030      11.14758312      -0.00220119       0.00424650      -0.00664202
Ti       3.57479791       5.80272582      11.15108665      -0.00223510       0.00609314      -0.00634337
Ti       0.24798794       7.98926597      11.84945388       0.00012657       0.00016442       0.00061121
Ti       2.79287467       3.12209337      11.84882056       0.00082447      -0.00111664      -0.00138999
Ti       3.59323281       0.44572798      12.58584167       0.00316391      -0.00843751      -0.00040216
Ti       1.04944051       5.31539359      12.58944512       0.00295912      -0.00298435       0.00028031
Ti       0.22681739       2.64427771      13.30684259      -0.00354034      -0.00013930       0.00171683
Ti       2.77275532       7.51196400      13.31308526      -0.00321800       0.00067561       0.00507903
Ti       1.08924009       9.73631545      13.97195774      -0.00673721      -0.00336969       0.00857962
Ti       3.63780543       4.86419947      13.98197762      -0.00460449       0.00140761       0.01005684
Ti       2.73980014       2.22141466      14.65461167      -0.00039303      -0.00067762       0.00836336
Ti       0.19824383       7.09003083      14.65926449       0.00069218       0.00117925       0.00966497
Ti       3.65626753       9.34190884      15.32668440      -0.00123370      -0.00286018       0.00504652
Ti       1.11344178       4.47461505      15.32811737      -0.00285661       0.00314834       0.00988537
Ti       0.25220993       1.83914654      16.06836063       0.00077539      -0.00242048       0.00652395
Ti       2.79995549       6.69463138      16.08126653       0.00136511      -0.00201231       0.00603898
Ti       1.01980182       8.83487218      16.67790112      -0.00071948      -0.00894302      -0.00727863
Ti       3.57474106       3.95051487      16.69875693       0.00263731      -0.00195766       0.00043921
Ti       2.70696315       1.19758803      17.46181302      -0.00541131      -0.01027217      -0.00078684
Ti       0.19350510       6.06880108      17.46740787      -0.00451128      -0.01366072      -0.00372549
Ti       1.29504592       3.40802567      18.20912959       0.00356780      -0.00498268      -0.00772685
Ti       3.84214239       8.25712911      18.21506302       0.00350866      -0.00901921      -0.01182044
Ti       0.01502013       0.90254496      18.77970294       0.00456014       0.00212260      -0.00451438
Ti       2.60090712       5.75777286      18.81608383       0.00335392      -0.00657603      -0.00911900
Ti       1.28249377       8.27849479      19.34788318       0.00206541       0.00296546       0.00293360
Ti       3.82800425       3.38801783      19.40434102       0.00102111       0.00478660       0.00188842
Ti       2.33519151       1.17659434      20.22019540      -0.00466699       0.00986366       0.01468088
Ti       4.93039723       6.10411945      20.23382252      -0.00359870       0.00582978       0.01251601
Ti       1.55376435       3.98139240      20.89316009       0.00346298       0.00340193       0.01048128
Ti       4.12164591       8.85227056      20.88986276      -0.00044101       0.00786673       0.00916519
Ti       4.85196108       1.86298187      21.56178357       0.00312168       0.00494922      -0.00081019
Ti       2.28585816       6.76292663      21.56604178       0.00108639      -0.00065395       0.00098587
Ti       1.34399408       9.33830758      22.36943115       0.00103846       0.00550130      -0.00523567
Ti       3.91132449       4.48967512      22.33308281      -0.00297992       0.00245726      -0.00427418
Al       4.82492064       7.08513241      22.95082345       0.00122367      -0.00140610      -0.00422672
Ti       2.32923566       2.22461866      22.93990351      -0.00063575       0.00394651      -0.00926007
Ti       1.35578549       4.86527135      23.56713211       0.00273563      -0.00147151      -0.01456120
Ti       3.91616924       9.71362265      23.56409296      -0.00046801       0.00034854      -0.00815473
Ti       4.85186970       2.61024309      24.32764867      -0.00539712      -0.00017293      -0.01025675
Ti       2.28647974       7.46263850      24.33912600      -0.00530234       0.00388702      -0.01487885
Ti       4.05857463       5.31553590      25.01328342       0.00387372       0.00337586       0.00000014
Ti       1.53091037       0.46104261      25.03032257      -0.00125345       0.00302816      -0.00666303
Ti       4.87705250       7.99762773      25.66714010       0.00512635      -0.00418134       0.00065870
Ti       2.30442421       3.14455980      25.67319369       0.00687921      -0.00108355       0.00138177
Ti       4.00616139       0.90111592      26.48365007       0.00215097       0.00065908       0.00589806
Ti       1.47731690       5.75531201      26.52475549      -0.00281749      -0.00090186       0.00855387
Ti       2.30856337       8.41395834      27.13466540       0.00166209       0.00130968       0.00525536
Ti       4.82530632       3.54623499      27.13008859      -0.00090493       0.00491760       0.01555658
Ti       3.98422713       6.22667468      27.72993172       0.00648172       0.00109601      -0.00019990
Ti       1.42285766       1.36019594      27.72621663      -0.00052903       0.01180414       0.00524922
Ti       4.98098363       8.80922562      28.47730622       0.00043015       0.00256285       0.00236543
Ti       2.42867266       3.93881011      28.50435153       0.00780510       0.00268733      -0.00040780
Ti       1.69003572       6.53469767      29.12365102      -0.00632634      -0.00367446       0.00366886
Ti       4.22128210       1.65804142      29.10379767      -0.00290121       0.00504374      -0.00004525
Ti       4.83498478       4.56490084      29.63468278      -0.00199524      -0.01222101      -0.00649944
Ti       2.28456180       9.44115514      29.62937882       0.00227661      -0.00514365       0.00392148
