64
Lattice="5.871999 0.0 0.0 0.0 6.890708 0.0 0.0 0.0 43.401158" Properties=species:S:1:pos:R:3:forces:R:3 job_name=Segregation-1sol-addvac-T1m-V-V-34-d-0.00 top_level=Segregation-1sol-addvac solute=V energy=-486.60020856 stress_kbar_3x3="_JSON [[-10.83892715, -0.00045376, 8.312e-05], [-0.00045375, -21.8920004, -0.51840381], [8.311e-05, -0.51840379, -7.98926289]]" pbc="T T T"
Ti       2.93602995       6.83546265       8.83114333       0.00005519      -0.00068540       0.01105751
Ti       0.00000925       6.83567743       8.82993704      -0.00002940      -0.00064681       0.01078327
Ti       2.93605629       3.03783163       9.23469484       0.00001218       0.00406822       0.01368240
Ti       0.00000498       3.03782965       9.23363049      -0.00001442       0.00398588       0.01371291
Ti       4.40499594       5.18234613      10.42551277      -0.00008567      -0.00449282       0.01204929
Ti       1.46703580       5.18233454      10.42553493       0.00007664      -0.00451872       0.01207724
Ti       1.46761433       1.22314395      10.78905296      -0.00004272      -0.00157982       0.00441121
Ti       4.40444274       1.22316770      10.78903532       0.00002752      -0.00163424       0.00440500
Ti       2.93604395       3.32131807      12.06569463       0.00004130       0.00362472      -0.00159299
Ti      -0.00002327       3.32226888      12.06561967      -0.00002215       0.00348750      -0.00162453
Ti       2.93604170       6.26714794      12.60409310       0.00002600      -0.00419451      -0.00438734
Ti       0.00001107       6.26593709      12.60587822      -0.00003244      -0.00412447      -0.00435622
Ti       4.40450252       1.52008438      13.72692619      -0.00011941      -0.00078137      -0.00913148
Ti       1.46753507       1.52005334      13.72696115       0.00013123      -0.00092604      -0.00908619
Ti       1.46724709       4.38860581      14.29936772      -0.00003633       0.00224131      -0.00973815
Ti       4.40479713       4.38858291      14.29936942       0.00005273       0.00216355      -0.00971203
Ti       2.93604431       6.55360686      15.47597759       0.00002630      -0.00009412      -0.00265473
Ti      -0.00000485       6.55361300      15.47949087      -0.00005983      -0.00027931      -0.00249678
Ti      -0.00000968       2.51218122      15.99736375      -0.00002793       0.00363935       0.00317404
Ti       2.93604309       2.51297264      15.99728155       0.00005426       0.00346061       0.00320731
Ti       4.39648463       4.65728460      17.14280916      -0.00013677      -0.00040641       0.00420862
Ti       1.47556368       4.65727107      17.14282539       0.00010350      -0.00035229       0.00421908
Ti       4.40629766       0.73270338      17.73440446      -0.00033434       0.00074594       0.00286594
Ti       1.46572365       0.73272164      17.73438678       0.00036863       0.00069919       0.00286928
Ti       2.93600552       2.87494143      18.98973900       0.00002025       0.00170767       0.00124732
Ti       0.00004427       2.86862799      18.99987585      -0.00001039       0.00112097       0.00200369
Ti       0.00002553       5.71077904      19.31739059       0.00001524      -0.00198303       0.00313670
Ti       2.93600855       5.71886434      19.33407235      -0.00003399      -0.00233512       0.00313978
Ti       1.44934299       0.86934905      20.58639524      -0.00100511       0.00088587      -0.00236635
Ti       4.42270066       0.86933483      20.58640537       0.00101597       0.00087719      -0.00235048
Ti       1.52156963       4.19841366      21.16518628       0.00077380      -0.00376587      -0.00101154
Ti       4.35045117       4.19840509      21.16515802      -0.00080864      -0.00380311      -0.00095240
V        2.93605214       6.21182395      22.56043801      -0.00001860      -0.00129204       0.00000805
Ti       2.93600294       2.14638955      22.55568292       0.00001636       0.00370717      -0.00151950
Ti       0.00002956       6.25602506      22.56038383      -0.00001197      -0.00007007       0.00110593
Ti       0.00000720       2.23850942      22.55706000       0.00001764       0.00185701      -0.00119150
Ti       4.35104170       4.19604910      23.95204807       0.00098194      -0.00340089       0.00025590
Ti       1.52098988       4.19608799      23.95203988      -0.00098909      -0.00346290       0.00031894
Ti       1.45208015       0.87653728      24.53144973      -0.00131709       0.00169629       0.00238040
Ti       4.41994389       0.87653684      24.53143534       0.00131139       0.00168753       0.00241485
Ti       2.93599293       5.72761384      25.76957682      -0.00001872       0.00053758       0.00091039
Ti       0.00002996       5.71922503      25.78886822       0.00004812       0.00017419      -0.00029806
Ti       0.00001377       2.87097075      26.11379110       0.00003046      -0.00009490       0.00073545
Ti       2.93602938       2.87862767      26.12545002      -0.00004695      -0.00048956       0.00081013
Ti       4.40541377       0.74804412      27.37356358       0.00036060       0.00162558      -0.00108905
Ti       1.46661310       0.74806247      27.37355618      -0.00034988       0.00151413      -0.00110660
Ti       1.47660116       4.66190633      27.96987561       0.00011084      -0.00162044       0.00015817
Ti       4.39541217       4.66191288      27.96988067      -0.00012589      -0.00170691       0.00011075
Ti       2.93597770       2.53341214      29.11067172       0.00005096       0.00181276      -0.00088638
Ti       0.00003802       2.53374979      29.11057409      -0.00005138       0.00174864      -0.00111997
Ti       0.00001620       6.59540751      29.63339145       0.00003375      -0.00027938       0.00316207
Ti       2.93599822       6.59544931      29.63878930      -0.00000371      -0.00050041       0.00305854
Ti       4.40504165       4.44960544      30.79453927       0.00009599       0.00078040      -0.00343356
Ti       1.46696489       4.44961409      30.79456193      -0.00006121       0.00067002      -0.00354891
Ti       1.46756118       1.48444502      31.34136608       0.00004954       0.00056281      -0.00523799
Ti       4.40445282       1.48442638      31.34136506      -0.00009976       0.00049692      -0.00524774
Ti       0.00004086       6.28128067      32.60804476      -0.00008956      -0.00435079      -0.00375766
Ti       2.93596827       6.28151201      32.61059828       0.00008966      -0.00432060      -0.00346576
Ti       0.00004881       3.35527543      32.96261378      -0.00001797       0.00397138      -0.00923362
Ti       2.93596294       3.35447141      32.96422057       0.00002595       0.00398738      -0.00916850
Ti       4.40372891       1.19899931      34.15682398      -0.00000345       0.00082693      -0.00300513
Ti       1.46828041       1.19895340      34.15682327       0.00000242       0.00090595      -0.00297721
Ti       1.46712367       5.00160864      34.56315019      -0.00002217      -0.00161361      -0.00475069
Ti       4.40489238       5.00158631      34.56320828       0.00000062      -0.00146469      -0.00518112
