64
Lattice="5.088765 0.0 0.0 0.0 9.739025 0.0 0.0 0.0 38.303587" Properties=species:S:1:pos:R:3:forces:R:3 job_name=Segregation-1sol-addvac-T2-Al-Al-32-d-0.00 top_level=Segregation-1sol-addvac solute=Al energy=-480.64325115 stress_kbar_3x3="_JSON [[-13.44909643, 0.65910987, 1.21248149], [0.65910986, -12.18906218, -0.58786065], [1.21248149, -0.58786068, -0.78494135]]" pbc="T T T"
Ti       0.14929722       4.58666110       8.66227407      -0.00277744       0.00476926       0.00928709
Ti       2.70339013       9.46484724       8.65379882      -0.00248472       0.00619371       0.01284664
Ti       3.31775041       6.55326586       9.18385628      -0.00683010       0.00560383      -0.00161671
Ti       0.77240199       1.68795559       9.18826717      -0.00633770       0.00067964      -0.00282971
Ti       0.01096169       8.84258885       9.79995657      -0.00833863       0.00142455       0.00150418
Ti       2.54664074       3.96880266       9.80212016      -0.00673732      -0.00095487       0.00166197
Ti       1.01802386       6.25678229      10.56091018      -0.00288583      -0.00109126      -0.00792456
Ti       3.56011293       1.39053111      10.56021221      -0.00421737      -0.00479762      -0.00809192
Ti       2.69396825       8.44377098      11.15069561      -0.00890392       0.00738614      -0.01377969
Ti       0.14443410       3.57253468      11.16571159      -0.00842123       0.00389614      -0.00916592
Ti       3.51595444       5.78322892      11.80025988      -0.00145467       0.00145862      -0.00801377
Ti       0.96621922       0.92045521      11.80858033      -0.00075225       0.00037621      -0.00614799
Ti       0.11428952       8.01697665      12.61153749      -0.00499063       0.00519083      -0.00702477
Ti       2.65553582       3.14514922      12.61984056      -0.00470448       0.00079484      -0.00362514
Ti       0.91797151       5.34510351      13.26984318      -0.00336398       0.00118588       0.00564467
Ti       3.45605756       0.48037937      13.26477556      -0.00444557       0.00322513       0.00700867
Ti       2.65903886       7.50390046      13.93248409      -0.00306382       0.00711390       0.00925626
Ti       0.11106255       2.63720473      13.96167095      -0.00238076       0.00017138       0.01207244
Ti       3.54262534       4.89707353      14.69089453      -0.00276239      -0.00014242       0.01312027
Ti       0.99795809       0.02662081      14.69530806      -0.00437730       0.00700167       0.01632467
Ti       0.10867106       7.09928299      15.37427418      -0.00397652       0.00697045       0.01448093
Ti       2.64283123       2.24534610      15.39410301      -0.00147174       0.00084186       0.01649298
Ti       3.56246504       9.36163191      15.92310474      -0.00189856       0.00887481       0.01035110
Ti       1.02516850       4.48295327      15.97472743      -0.00304943      -0.00224443       0.00835267
Ti       2.64987652       6.79050169      16.74137912      -0.00436376       0.00733203       0.00320329
Ti       0.07850608       1.90398021      16.79539617      -0.00406718       0.00268471       0.00068388
Ti       3.42071332       4.08428512      17.39138373      -0.00381450       0.00003768       0.00298561
Ti       0.84283827       8.91651927      17.37970356      -0.00496407       0.00699046      -0.00448389
Ti       2.74179567       1.15945873      18.09085463      -0.00163489       0.00333888      -0.00779630
Ti       0.22296145       6.07765589      18.10308909       0.00652821       0.00615225       0.00131298
Ti       3.76279150       8.18400277      18.94945089      -0.00622577      -0.00248722      -0.00006844
Ti       1.26211254       3.32886151      18.99781996       0.00274714       0.00192770       0.00246589
Al       5.07069873       0.83116995      19.51141309      -0.00295971      -0.00068155       0.00267606
Ti       2.53181520       5.69081345      19.58911682      -0.00044503      -0.00181500       0.00790015
Ti       3.81705756       3.25584471      19.99683007      -0.00533984      -0.00782877      -0.00239895
Ti       1.26274406       8.14434951      19.99799881      -0.00101973      -0.00581972      -0.00530398
Ti       5.01883842       5.92955524      20.81504275       0.00823534      -0.00806219      -0.00875144
Ti       2.37223366       1.07775491      20.84100102       0.00659466      -0.00556880      -0.00045176
Ti       4.25243491       8.82500994      21.62778459       0.00348902      -0.00271657       0.00013939
Ti       1.70415397       3.95465634      21.67604430       0.00753329      -0.01446373      -0.00223389
Ti       4.94840096       1.84272524      22.20464936      -0.00279656      -0.00479491      -0.00392313
Ti       2.37139819       6.76329461      22.22115237      -0.00250057       0.00165268      -0.00897318
Ti       4.08407556       4.49197074      22.99836923       0.00274454      -0.00818873      -0.00743801
Ti       1.53091160       9.35626464      23.05172825       0.00073299       0.00455882      -0.01170222
Ti       2.48382979       2.21686936      23.65405217       0.00544606      -0.00336142      -0.00923464
Ti       5.00435415       7.07528698      23.65208562       0.00340832       0.00326103      -0.00548309
Ti       4.11835958       9.73093927      24.31017122       0.00502097      -0.00087039      -0.01033904
Ti       1.57931408       4.87087550      24.32787619       0.00371073      -0.00507508      -0.00344141
Ti       4.98789118       2.62225383      24.97929025       0.00507756      -0.00578274      -0.00677856
Ti       2.43234270       7.49542124      25.00851045       0.00487640       0.00050501      -0.00138099
Ti       1.63153181       0.44715691      25.74408998       0.00349309      -0.00337694       0.00056956
Ti       4.17153321       5.30998315      25.73150306       0.00302304      -0.00331826       0.00308382
Ti       2.41411321       3.12097339      26.45130751       0.00922221      -0.00261849      -0.00078754
Ti       4.95131060       7.99524612      26.45119892       0.00793673      -0.00330318       0.00134600
Ti       4.17869259       0.93622818      27.16197062       0.00164286       0.00351342       0.00747894
Ti       1.63306046       5.80644962      27.16755187       0.00221706       0.00612028       0.00956257
Ti       5.04244982       3.58949287      27.75115389       0.00484586      -0.01000425       0.00401896
Ti       2.49406812       8.46195838      27.76545406       0.00552145      -0.01054322       0.00690760
Ti       1.51837813       1.32482994      28.51017970       0.00261971      -0.00304314      -0.00006851
Ti       4.06264309       6.19153689      28.50751486       0.00249726      -0.00152276      -0.00028109
Ti       2.28443264       3.90051338      29.08235317       0.00679032      -0.00041601       0.00214195
Ti       4.83136005       8.76961135      29.08372631       0.00703112      -0.00086757       0.00188211
Ti       4.21318464       1.93869912      29.66921097       0.00966039       0.00058367      -0.01385520
Ti       1.67231953       6.80463221      29.67616873       0.00811164       0.00394378      -0.01336787
