64
Lattice="5.088765 0.0 0.0 0.0 9.739025 0.0 0.0 0.0 38.303587" Properties=species:S:1:pos:R:3:forces:R:3 job_name=Segregation-1sol-addvac-T2-V-V-50-d-6.29 top_level=Segregation-1sol-addvac solute=V energy=-484.56264842 stress_kbar_3x3="_JSON [[-10.79460917, 0.46767238, 0.16007503], [0.46767239, -13.95810466, 0.21221081], [0.16007506, 0.2122108, -0.43037445]]" pbc="T T T"
Ti       3.52739946       6.71681222       8.65338952       0.00177812       0.00502707       0.01500498
Ti       0.98279306       1.84771281       8.65342453       0.00143347       0.00445702       0.01145656
Ti       0.35873523       8.68941032       9.22925793      -0.00013328      -0.00343892      -0.00077594
Ti       2.90348654       3.82006023       9.22901305      -0.00009743      -0.00274776      -0.00066263
Ti       1.13725397       6.10967074       9.81103944       0.00232885       0.00248283       0.00362472
Ti       3.68181438       1.24042774       9.81070783       0.00059273       0.00191091       0.00265145
Ti       2.69199329       8.38627306      10.55382369      -0.00145084      -0.01627421      -0.00748837
Ti       0.14794312       3.51708765      10.55329715      -0.00158131      -0.01367210      -0.00573612
Ti       1.00890725       0.84616124      11.16634056      -0.00397135       0.00444268       0.00175802
Ti       3.55313680       5.71556852      11.16768351      -0.00335842       0.00404371       0.00002463
Ti       0.23894114       7.90052941      11.85118320       0.00000352       0.00062121       0.00226015
Ti       2.78380390       3.03205219      11.85111461      -0.00271707       0.00110887       0.00307389
Ti       1.03289578       5.20573060      12.59798133       0.00080687      -0.00217968       0.00594862
Ti       3.57764826       0.33601892      12.59665201      -0.00059652      -0.00104441       0.00900020
Ti       0.19675066       2.55158688      13.32842149       0.00260890      -0.00019606       0.00689339
Ti       2.74119138       7.41898618      13.32948951       0.00167166       0.00290565       0.00601827
Ti       1.07129831       9.63698422      13.99076692       0.00117853      -0.00288681       0.00729478
Ti       3.61582912       4.76644390      13.99266354       0.00048526      -0.00492558       0.00395176
Ti       2.70303404       2.13481497      14.62743306      -0.00635275      -0.00422313      -0.00615226
Ti       0.15918722       7.00305084      14.62674713      -0.00782651       0.00193838      -0.00428218
Ti       3.64136493       9.28559280      15.35095821       0.00573707       0.00629687      -0.00530378
Ti       1.09797876       4.41731072      15.35287818       0.00401368       0.00345639      -0.00310017
Ti       0.28515594       1.72975993      16.05839534       0.00247337      -0.00329269      -0.00649291
Ti       2.83279284       6.59807495      16.06176194       0.00134205       0.00013651      -0.00835711
Ti       0.97432933       8.65132644      16.68123548      -0.00450584       0.00039115      -0.01706811
Ti       3.52035696       3.78140318      16.68593987      -0.00328611      -0.00336427      -0.01667718
Ti       2.59659057       0.99897042      17.54152267       0.00281443      -0.00493716      -0.00927637
Ti       0.05474633       5.86652586      17.54895986       0.00268979      -0.00409181      -0.00703903
Ti       3.85316358       8.13578190      18.26289235      -0.00520041      -0.00303598       0.00678026
Ti       1.30339685       3.26804346      18.26585239      -0.00166748      -0.00349060       0.00363970
Ti       0.03638744       0.83075241      18.68821046      -0.00238575       0.00275423      -0.01213170
Ti       2.58396567       5.69917169      18.69053103      -0.00024750       0.00386959      -0.00852385
Ti       1.30593278       8.27874759      19.39982416       0.00113009      -0.00602962       0.00013645
Ti       3.85204944       3.41901645      19.40984335      -0.00186063      -0.00573184      -0.00266053
Ti       2.24382337       1.30768438      20.25925987      -0.00670628      -0.00136256       0.00627435
Ti       4.79181017       6.17143579      20.27684533      -0.01085602      -0.00327229       0.00637414
Ti       4.12291063       9.03241840      20.87711765       0.00524209       0.00324420       0.00211561
Ti       1.58869418       4.16381981      20.88768331       0.00592995      -0.00100279       0.01187344
Ti       2.39057423       6.86179836      21.57919826      -0.00317216       0.00435180       0.00076216
Ti       4.94314076       2.01894119      21.58570807      -0.00065906       0.00988937       0.00843568
Ti       1.40762404       9.41761698      22.35476143       0.00551778      -0.00046156       0.01007018
Ti       3.94187006       4.57827383      22.42125516       0.00368842       0.00018967       0.00694508
Ti       2.34959063       2.31868895      22.90158140       0.00143435       0.00185315      -0.00597643
Ti       4.88900113       7.19818572      22.94582577      -0.00000560      -0.00056901      -0.00091733
Ti       3.96040329       0.09532193      23.57795236      -0.00796381       0.00642806      -0.00159493
Ti       1.39767154       4.95718158      23.59459369      -0.00442588       0.00211215      -0.00827127
Ti       2.39486511       7.53563894      24.38462432       0.00675995       0.00275771      -0.00324958
Ti       4.87278815       2.73019358      24.38935322       0.00419142      -0.00329313      -0.01090094
Ti       1.56093350       0.57169844      25.00790984       0.00198906       0.00420412      -0.00150150
V        4.15008830       5.44134607      24.99937929      -0.01408373       0.01166693      -0.00636331
Ti       4.89150528       8.12561118      25.64401943       0.00845896      -0.00252929      -0.00191583
Ti       2.43029287       3.31709283      25.65563260      -0.00016667      -0.00754435      -0.00556021
Ti       1.41688352       5.86694992      26.47773192       0.00279863       0.00611195       0.00691951
Ti       3.98317504       1.00063021      26.50786392       0.00627553      -0.00044997       0.00628621
Ti       4.87252192       3.64233924      27.08935777       0.00090386       0.00007512       0.00654763
Ti       2.30330543       8.52186833      27.12279416      -0.00752152       0.01338921      -0.00587211
Ti       3.93310442       6.29351407      27.59495366       0.01113937      -0.01065057       0.00988886
Ti       1.40249310       1.44062069      27.67991249      -0.00163955      -0.01156527      -0.00505876
Ti       4.97301421       8.86292105      28.47299998       0.00283614       0.00018482      -0.00765879
Ti       2.45072195       4.01305076      28.46558777       0.00398053       0.00847744      -0.00299172
Ti       1.71634674       6.61948335      29.07176778       0.00091795      -0.00569234       0.00738012
Ti       4.25725487       1.75048687      29.10138878       0.00012644      -0.00575169       0.00532660
Ti       2.29846349       9.54206907      29.60269806       0.00210231       0.00663532       0.00851565
Ti       4.85722123       4.69790808      29.56563821      -0.00294165       0.01229339      -0.00367209
