64
Lattice="5.872 0.0 0.0 0.0 6.890708 0.0 0.0 0.0 43.394398" Properties=species:S:1:pos:R:3:forces:R:3 job_name=Segregation-1sol-addvac-T1g-V-V-32-d-0.00 top_level=Segregation-1sol-addvac solute=V energy=-487.05404751 stress_kbar_3x3="_JSON [[-4.70397093, 9.972e-05, -0.00067351], [9.974e-05, -16.72645375, 1.44743311], [-0.0006735, 1.44743307, -0.23861481]]" pbc="T T T"
Ti       4.40400680       5.09570337      34.44329236       0.00007971       0.01065887       0.01090826
Ti       1.46803147       5.09609098      34.44176666      -0.00009861       0.01084614       0.01385188
Ti       0.00015112       3.35089785       8.95263603      -0.00014225      -0.01009676       0.01643796
Ti       2.93582139       3.35084782       8.95252536       0.00008693      -0.00987488       0.01600952
Ti       5.87181179       6.43970312       9.35465532      -0.00018678      -0.01455288       0.00438977
Ti       2.93613447       6.43982300       9.35455275       0.00014932      -0.01471406       0.00409716
Ti       4.40380753       1.70184118      10.54844275       0.00073160      -0.00481621      -0.00503119
Ti       1.46818691       1.70191806      10.54610929      -0.00043573      -0.00463276      -0.00523123
Ti       1.46803065       4.63106043      10.90196679      -0.00007659      -0.00183183      -0.01715903
Ti       4.40389839       4.62978913      10.90200867       0.00018218      -0.00134054      -0.01733590
Ti       0.00147780       6.72262288      12.16426710      -0.00034136      -0.00341400       0.00502286
Ti       2.93449094       6.72262820      12.16398363       0.00032591      -0.00335528       0.00557730
Ti       2.93574005       2.78033444      12.70756145      -0.00020310      -0.00528261      -0.00175367
Ti       0.00024580       2.78037131      12.70745220       0.00017707      -0.00553777      -0.00170153
Ti       4.40405502       4.92783927      13.84603142      -0.00020473      -0.00141051       0.00514862
Ti       1.46795111       4.93009660      13.84504599       0.00008276      -0.00254603       0.00494622
Ti       4.40404417       0.87503778      14.38616318      -0.00022732      -0.00450993       0.00145349
Ti       1.46796470       0.87067644      14.39056891       0.00021228      -0.00591341      -0.00031541
Ti       2.93083096       3.01620145      15.53285208       0.00059689      -0.00597646       0.00452866
Ti       0.00519712       3.01615098      15.53269472      -0.00056878      -0.00568331       0.00503485
Ti       2.93713360       5.92072902      16.09627081      -0.00033954       0.00020792      -0.00123754
Ti       5.87090139       5.92069947      16.09626028       0.00040574       0.00010075      -0.00136437
Ti       4.40405569       1.18662073      17.27864796      -0.00010638       0.00048985       0.00130795
Ti       1.46799381       1.16773741      17.30321429       0.00004978      -0.00108359       0.00340009
Ti       4.40404843       4.01819585      17.76434811      -0.00004664      -0.00903972       0.00084724
Ti       1.46798206       4.02522138      17.75033295       0.00004627      -0.00471716       0.00316242
Ti       2.99512200       6.12355854      18.92295723       0.00157819       0.00068811       0.00600756
Ti       5.81289938       6.12353200      18.92292057      -0.00152651       0.00065116       0.00580645
Ti       2.95914158       2.29979670      19.45654963       0.00086130      -0.00198676       0.00576335
Ti       5.84889537       2.29979480      19.45656204      -0.00079223      -0.00192518       0.00587968
Ti       1.46802893       4.35119294      20.84553440      -0.00000955      -0.00474357       0.00006701
Ti       4.40397840       4.43342647      20.84168977      -0.00008238       0.00207736       0.00027066
V        4.40401586       0.46706315      20.85784125      -0.00032227       0.00160872      -0.00421825
Ti       1.46802988       0.34300854      20.86273502       0.00011608       0.00312026      -0.00316985
Ti       5.84534264       2.28935315      22.24454208      -0.00037217      -0.00267274      -0.00875177
Ti       2.96269789       2.28934670      22.24453073       0.00027051      -0.00272263      -0.00873248
Ti       5.80826913       6.08003361      22.77475704       0.00024536       0.00387542      -0.00630563
Ti       2.99975092       6.08004991      22.77476085      -0.00014547       0.00402036      -0.00642279
Ti       4.40401017       3.97227732      23.95205834      -0.00001851      -0.00234837      -0.00300118
Ti       1.46803644       3.97416711      23.97199718       0.00005491       0.00137391      -0.00479067
Ti       4.40398716       1.13323816      24.41490939       0.00004986       0.00293262       0.00149801
Ti       1.46803569       1.11158900      24.38652211      -0.00003065       0.00034396      -0.00101059
Ti       5.87011155       5.85411459      25.60893324       0.00110420       0.00052745       0.00056168
Ti       2.93792411       5.85411734      25.60896482      -0.00114311       0.00045687       0.00041566
Ti       2.93272719       2.94298821      26.16392815       0.00066310       0.00064982      -0.00005890
Ti       0.00333113       2.94298554      26.16393385      -0.00068100       0.00055284      -0.00006670
Ti       4.40403880       0.78523407      27.31888447       0.00008489       0.00600476      -0.00309298
Ti       1.46803117       0.78022210      27.31400060      -0.00012539       0.00567129      -0.00035037
Ti       1.46802820       4.81691713      27.84751640      -0.00005053       0.00316335      -0.00613380
Ti       4.40399652       4.81453870      27.84998770       0.00007628       0.00463584      -0.00586126
Ti       2.93485575       2.64865128      29.00675618      -0.00009361       0.00316547      -0.00495342
Ti       0.00118073       2.64866044      29.00674776       0.00018109       0.00309635      -0.00473032
Ti       2.93476465       6.67511770      29.56964027      -0.00050715       0.00947828      -0.00607932
Ti       0.00127286       6.67511035      29.56966209       0.00046247       0.00951389      -0.00598244
Ti       4.40399431       4.52913566      30.70706804       0.00021344       0.00106671      -0.00209224
Ti       1.46798888       4.52991531      30.70690255      -0.00013735       0.00071167      -0.00198134
Ti       4.40403503       1.58788691      31.22351399       0.00011429       0.00314492       0.00263405
Ti       1.46804715       1.58829271      31.22513717      -0.00007610       0.00456033       0.00189678
Ti       2.93614028       6.38223248      32.49603183       0.00124907       0.01768927       0.00463417
Ti      -0.00009726       6.38223581      32.49602816      -0.00128857       0.01760904       0.00474510
Ti       5.87130929       3.43834402      32.86574146      -0.00069145      -0.00450621      -0.00391243
Ti       2.93671266       3.43834262      32.86572308       0.00069459      -0.00455893      -0.00367411
Ti       1.46801309       1.29539436      34.05523053       0.00012911       0.00545505       0.00099210
Ti       4.40401697       1.29515959      34.05597171      -0.00020340       0.00564551      -0.00079381
