52
Lattice="4.6568 0.0 0.0 0.0 7.770572 0.0 0.0 0.0 41.044546" Properties=species:S:1:pos:R:3:forces:R:3 job_name=Segregation-1sol-addvac-CSL7-Al-Al-26-d-0.72 top_level=Segregation-1sol-addvac solute=Al energy=-389.6432037 stress_kbar_3x3="_JSON [[-13.14138745, 1.50012669, 1.97473926], [1.50012669, -17.61095088, 1.7633038], [1.97473928, 1.76330376, -1.50003673]]" pbc="T T T"
Ti       2.17759587       4.38400889       8.67373078      -0.00793826      -0.00697852      -0.00903224
Ti       4.50320257       2.51067760       8.97149391      -0.00912034      -0.00557861      -0.00750290
Ti       2.17569008       7.14054254       9.47589936      -0.00810315      -0.00793668      -0.00685621
Ti       4.50158433       5.42457143       9.78667951      -0.00799329      -0.00660445      -0.00467527
Ti       2.17097501       2.10261916      10.46507479      -0.00850925      -0.00328322      -0.00391470
Ti       4.49853312       0.50526628      10.73854328      -0.00871755      -0.00602139      -0.00210335
Ti       2.16633482       4.97248929      11.32570019      -0.00666645      -0.01016706      -0.00049161
Ti       4.49321697       3.25946800      11.64173903      -0.00720550      -0.00668872      -0.00501044
Ti       2.16235205       7.66753634      12.28918232      -0.00708981      -0.00623619       0.00620092
Ti       4.48939679       5.98645794      12.59693717      -0.00658438      -0.00271212       0.00521764
Ti       2.15470883       2.69787681      13.24779965      -0.00568654      -0.00529781       0.00822837
Ti       4.48665963       1.03113142      13.55298044      -0.00603418      -0.00840023       0.00546700
Ti       2.15330043       5.45096624      14.17613746      -0.00593121      -0.00116128       0.00211348
Ti       4.47076742       3.79982000      14.52464242      -0.00571765      -0.00634640       0.00598955
Ti       2.15446025       0.46487038      15.17424314      -0.00557017      -0.00395344       0.00166275
Ti       4.48555829       6.54567392      15.42477453      -0.00438768      -0.00479375      -0.00109129
Ti       2.11057054       3.24233347      16.12404201      -0.00478757      -0.00598780       0.00332781
Ti       4.46473091       1.58318141      16.41960909      -0.00522036      -0.00443142       0.00067911
Ti       2.15212669       5.99784241      17.01602375      -0.00460737      -0.00302058       0.00469589
Ti       4.37494250       4.32328227      17.40997658      -0.00405762      -0.00481843       0.00223137
Ti       2.13161161       1.05213833      18.04114923      -0.00240411      -0.00282422       0.00263807
Ti       4.46074312       7.12274166      18.17244819      -0.00217585      -0.00289442       0.00288032
Ti       1.85147934       3.77325339      19.11549119      -0.00333892      -0.00359339       0.00100526
Ti       4.47248705       2.09913648      19.33830668      -0.00191775      -0.00686577       0.00093519
Ti       2.17452576       6.61871768      19.71128425      -0.00200023       0.00038241      -0.00529225
Ti       3.93442464       4.78520501      20.18353044       0.00036055      -0.00314989      -0.00066199
Ti       0.19665360       7.60604249      20.92491203       0.00255914      -0.00152196      -0.01277205
Ti       2.58746097       1.54587166      21.07657063      -0.00313879       0.00137377       0.00237384
Al       1.24949104       5.01533213      21.81653439      -0.00109314       0.00007432       0.00061106
Ti       0.68988091       2.27905084      22.38092037       0.00340897       0.00468666      -0.00054484
Ti       3.35123821       6.59630143      22.42308346      -0.00730424      -0.00324974       0.01025589
Ti       3.43921142       3.85976176      22.99252047       0.00400211      -0.00288465       0.00341826
Ti       1.05489274       7.33344062      23.72428093       0.00947685       0.00418284       0.00063586
Ti       3.31152089       1.24275496      23.96131926       0.00598815       0.00554387      -0.00171435
Ti       1.09986225       4.58393952      24.58142928       0.00408050       0.00594258       0.00044926
Ti       3.38465422       6.23554926      25.05746871       0.00461376       0.00237291      -0.00774972
Ti       0.99830202       1.85100199      25.47834365       0.00580686       0.00545198      -0.00352068
Ti       3.36108324       3.45885804      25.91704596       0.00589073       0.00486791      -0.00589615
Ti       1.04006536       6.81284086      26.57029238       0.00640008       0.00457530      -0.00862163
Ti       3.35705632       0.72831600      26.81626470       0.00722651       0.00835199      -0.00077284
Ti       1.02380581       4.04588195      27.46867919       0.00681206       0.00524217      -0.00642898
Ti       3.34599877       5.71514913      27.86873972       0.00795785       0.01003676      -0.00737069
Ti       1.02544582       1.25751818      28.38450285       0.00708389       0.00653527      -0.00408387
Ti       3.34808896       2.91244815      28.78672208       0.00695284       0.00639307      -0.00613056
Ti       1.01588729       6.27040271      29.44605821       0.00840629       0.00692290       0.00423034
Ti       3.34646148       0.23443101      29.68675854       0.00760475       0.00119960       0.00097396
Ti       1.01107321       3.51539136      30.30306086       0.00868288       0.00995203       0.00003259
Ti       3.33762815       5.10867318      30.62223707       0.00815753       0.01572035       0.00556362
Ti       1.00959627       0.68369459      31.23206357       0.00779647       0.00346364       0.00089049
Ti       3.33522789       2.38272680      31.59436013       0.00721794       0.01113907       0.01046385
Ti       1.00799882       5.49962757      32.10288454       0.00881257       0.00897135       0.00621542
Ti       3.33153596       7.38440784      32.34360052       0.00800209       0.00401941       0.01285146
