64
Lattice="5.872 0.0 0.0 0.0 6.890708 0.0 0.0 0.0 43.394398" Properties=species:S:1:pos:R:3:forces:R:3 job_name=Segregation-1sol-addvac-T1g-V-V-33-d-0.00 top_level=Segregation-1sol-addvac solute=V energy=-487.01647775 stress_kbar_3x3="_JSON [[-8.80139562, -8.668e-05, -0.00026877], [-8.667e-05, -20.20919586, 2.03951679], [-0.00026879, 2.03951681, -6.67855138]]" pbc="T T T"
Ti       4.40401322       5.04759426      34.53405153       0.00002005       0.00396255      -0.00644002
Ti       1.46799771       5.04704223      34.53513114      -0.00000747       0.00398697      -0.00586216
Ti       5.87162446       3.38130344       8.86061557       0.00020582       0.00297471       0.00790449
Ti       2.93636028       3.38127784       8.86063299      -0.00017536       0.00298892       0.00749389
Ti       0.00007343       6.46536733       9.26685528       0.00018177      -0.00215820       0.00683302
Ti       2.93591583       6.46532839       9.26685722      -0.00016450      -0.00241147       0.00677763
Ti       4.40384104       1.73465452      10.45794708      -0.00041270       0.00106416      -0.00078388
Ti       1.46816549       1.73527892      10.46024140       0.00039899       0.00106191      -0.00079370
Ti       1.46807040       4.65742301      10.81898346       0.00022560      -0.00232566      -0.00239863
Ti       4.40393979       4.65886837      10.81927293      -0.00022701      -0.00254363      -0.00236714
Ti       5.87071492       6.75616364      12.08328256      -0.00016932       0.00078247       0.00863074
Ti       2.93730236       6.75621595      12.08324697       0.00015910       0.00103684       0.00852565
Ti       2.93622686       2.81468759      12.63488753      -0.00007231      -0.00206685       0.01297642
Ti       5.87174796       2.81470063      12.63491593       0.00007352      -0.00190621       0.01293261
Ti       4.40397897       4.97098584      13.77440915      -0.00010870      -0.00155207       0.00602525
Ti       1.46800050       4.96881018      13.77548814       0.00012049      -0.00176375       0.00567436
Ti       4.40399072       0.90638297      14.32610920      -0.00008264      -0.00107600       0.00170685
Ti       1.46801123       0.91014661      14.32235216       0.00008627      -0.00110319       0.00158880
Ti       2.94065124       3.05640719      15.47173148      -0.00016373      -0.00125028      -0.00137647
Ti       5.86735766       3.05638076      15.47172831       0.00016439      -0.00120383      -0.00125360
Ti       2.93518940       5.95987314      16.04257146      -0.00024612      -0.00002101      -0.00336661
Ti       0.00081390       5.95985509      16.04261120       0.00022601       0.00000757      -0.00338192
Ti       4.40399626       1.21404096      17.25075766      -0.00002342      -0.00154420      -0.00233495
Ti       1.46801194       1.22965658      17.22571333       0.00003544      -0.00144037      -0.00216394
Ti       4.40403823       4.05890960      17.71291384      -0.00002898      -0.00087143      -0.00125982
Ti       1.46797572       4.05307048      17.72896977       0.00002597      -0.00147720      -0.00269254
Ti       2.88157671       6.16682576      18.88792302       0.00072413       0.00036638       0.00094677
Ti       0.05445361       6.16688390      18.88805643      -0.00075934       0.00026372       0.00090480
Ti       2.91189210       2.32204330      19.43740826      -0.00036387      -0.00324878       0.00153850
Ti       0.02412497       2.32201588      19.43739812       0.00033680      -0.00320444       0.00156708
Ti       1.46801563       4.46229371      20.81904198       0.00004895      -0.00050341       0.00546044
Ti       4.40399600       4.37898423      20.82671430       0.00000400      -0.00136657       0.00455364
Ti       4.40387323       0.36404781      20.86736175      -0.00007135      -0.00183996       0.00805791
V        1.46814865       0.47788443      20.85978738       0.00013856       0.00067976       0.00833040
Ti       0.03180233       2.30697110      22.24208876       0.00072383      -0.00277683       0.00047454
Ti       2.90425448       2.30699943      22.24207670      -0.00075141      -0.00280846       0.00050437
Ti       0.06069785       6.07447776      22.78876387       0.00136772       0.00118192      -0.00103781
Ti       2.87533459       6.07443533      22.78888854      -0.00141137       0.00125866      -0.00106551
Ti       4.40404119       3.95797348      24.01223819       0.00000619       0.00047996      -0.00335624
Ti       1.46797995       3.96177213      23.98555944       0.00001702       0.00015108      -0.00334124
Ti       4.40403099       1.10356649      24.40253031      -0.00004265      -0.00094406      -0.00131871
Ti       1.46802792       1.12334738      24.43364863       0.00004792      -0.00021108      -0.00164009
Ti       0.00155764       5.83706239      25.64613578       0.00025458       0.00273049      -0.00060454
Ti       2.93451846       5.83705464      25.64620332      -0.00026581       0.00275657      -0.00064625
Ti       2.93769215       2.90837834      26.21504604       0.00009412      -0.00012687      -0.00142890
Ti       5.87033705       2.90838670      26.21503976      -0.00010240      -0.00013187      -0.00144804
Ti       4.40401036       0.74283435      27.37406800      -0.00000716       0.00120089      -0.00337928
Ti       1.46802663       0.74809635      27.37711882       0.00003415       0.00127139      -0.00307889
Ti       1.46803903       4.77878294      27.90446919       0.00001256       0.00173982      -0.00348483
Ti       4.40402400       4.78147824      27.90031364      -0.00003911       0.00203455      -0.00368875
Ti       2.93707279       2.60852833      29.06993886      -0.00002309      -0.00066859      -0.00826393
Ti       5.87096688       2.60854449      29.06995297       0.00002734      -0.00059380      -0.00827451
Ti       2.93730552       6.62864231      29.64381138       0.00013353      -0.00071763      -0.00888127
Ti       5.87072277       6.62864334      29.64383031      -0.00014815      -0.00078467      -0.00889491
Ti       4.40399063       4.47823424      30.78278315      -0.00003717       0.00405653      -0.01066078
Ti       1.46803019       4.47749289      30.78360151       0.00002631       0.00404307      -0.01079266
Ti       4.40400191       1.54028361      31.30551147       0.00000337      -0.00170777      -0.00593076
Ti       1.46803486       1.53962885      31.30509840       0.00001549      -0.00150979      -0.00585731
Ti       2.93574645       6.33158084      32.58028164      -0.00002025      -0.00263785       0.00440859
Ti       0.00027107       6.33159672      32.58029145       0.00000376      -0.00262816       0.00443671
Ti       0.00100997       3.38761559      32.95697035       0.00020975       0.00624875       0.00887165
Ti       2.93501687       3.38763606      32.95696524      -0.00022645       0.00625603       0.00887139
Ti       1.46799433       1.23714318      34.14121152       0.00000141       0.00010682      -0.00615910
Ti       4.40401080       1.23722982      34.14024345      -0.00000309       0.00043346      -0.00628683
