64
Lattice="5.088765 0.0 0.0 0.0 9.739025 0.0 0.0 0.0 38.303587" Properties=species:S:1:pos:R:3:forces:R:3 job_name=Segregation-1sol-addvac-T2-Al-Al-42-d-3.50 top_level=Segregation-1sol-addvac solute=Al energy=-480.71004491 stress_kbar_3x3="_JSON [[-12.68425627, 1.18971272, -0.11605001], [1.1897127, -12.74735245, -0.55750391], [-0.11605001, -0.5575039, -1.17584973]]" pbc="T T T"
Ti       0.26889876       4.71076918       8.65012238       0.00409546       0.00252684      -0.01058731
Ti       2.81158345       9.58266817       8.64876770       0.00170949      -0.00273271      -0.00829747
Ti       0.88552429       1.80026080       9.20182785       0.00304405       0.00512317      -0.00318748
Ti       3.42867117       6.67123115       9.20063907       0.00334846      -0.00296997      -0.00315642
Ti       2.67048675       4.08404951       9.79226032      -0.00060964       0.00710260      -0.00887754
Ti       0.12434925       8.95197689       9.79054665      -0.00001033       0.00673129      -0.00645233
Ti       1.12336771       6.36292770      10.56114394       0.00282546       0.00468890      -0.00934649
Ti       3.66847654       1.49405975      10.56272001       0.00106846       0.00708397      -0.00226120
Ti       0.25415649       3.69493427      11.14564865       0.00480541       0.00306917      -0.01172817
Ti       2.79707307       8.56618105      11.14612662       0.00382668      -0.00063121      -0.00261041
Ti       3.60400384       5.88928903      11.82179471      -0.00609044      -0.00054068      -0.01296865
Ti       1.06000385       1.01676129      11.82103847      -0.00642557       0.00283082      -0.00473748
Ti       2.75524029       3.24904634      12.58903998       0.00400590      -0.00127841      -0.01229594
Ti       0.20889129       8.11707300      12.58890703       0.00172509       0.00186611      -0.00605835
Ti       1.03525283       5.45258368      13.29188093      -0.00351269      -0.00510453      -0.01775592
Ti       3.57702587       0.58340274      13.29609449      -0.00270659      -0.00992008      -0.00943956
Ti       0.21813092       2.76988555      13.92753329      -0.00481510      -0.00760974      -0.00656249
Ti       2.75867722       7.64216102      13.93551567      -0.00153628       0.00143322      -0.00483648
Ti       3.62674634       5.00660862      14.68150590       0.00153633       0.00169307       0.00029578
Ti       1.07923998       0.12956471      14.68186465       0.00130677      -0.00055059       0.00215260
Ti       2.75144991       2.35911529      15.36412859      -0.00376760      -0.01339753      -0.00018088
Ti       0.20716685       7.22482077      15.36375818      -0.00320139      -0.00090034       0.00143693
Ti       1.08157818       4.55897150      16.02813139       0.00614181      -0.00347309       0.00514966
Ti       3.61880875       9.42207873      16.03847690       0.00290470      -0.00252752       0.00393173
Ti       0.16729327       1.95484588      16.72188620       0.00073389      -0.01036306      -0.00138860
Ti       2.70219199       6.82583174      16.74316099       0.00184087       0.00011482      -0.00066276
Ti       3.57430594       4.15377311      17.45572437       0.00202151      -0.00553237       0.00583650
Ti       0.99763068       9.01492277      17.46280026       0.00427554      -0.00521459      -0.00204299
Ti       2.76684937       1.40407992      18.06241840      -0.00091284      -0.00009494       0.00180127
Ti       0.21408124       6.29883345      18.07372657       0.00305820       0.00164252       0.00562296
Ti       1.19615234       3.52343441      18.87279437      -0.00052208       0.00308800      -0.00132188
Ti       3.66878607       8.42814702      18.94476654      -0.00016648      -0.00047594      -0.01457651
Ti       5.06332300       0.95116784      19.53740215      -0.00023575       0.00083300      -0.01275294
Ti       2.48783919       5.79677354      19.60258051       0.00254024       0.00108816      -0.00637951
Ti       3.78546076       3.33170440      20.12368320       0.00200393      -0.00330580       0.00071705
Ti       1.19191786       8.21810492      20.16679951       0.00348697       0.00018134      -0.00191636
Ti       5.03009553       5.88152129      20.78631709       0.00063816      -0.00644792      -0.00777925
Ti       2.51686721       1.01827279      20.82745226      -0.00405151       0.00305474      -0.00563583
Ti       1.53415417       3.75164396      21.62946773      -0.00119587       0.00464636      -0.00806717
Ti       4.04461104       8.61431801      21.67461786      -0.00735561      -0.00368692      -0.00885533
Ti       4.94776154       1.67409994      22.25497225       0.00063118       0.00470344       0.00030099
Ti       2.24451724       6.49511288      22.27614096       0.00274174      -0.00445860      -0.00360418
Al       1.50312738       9.16033437      22.94431464      -0.01181837       0.00432961      -0.00667976
Ti       4.01547035       4.37852747      22.95561376      -0.00265102      -0.00412864      -0.00160638
Ti       2.43338224       2.03436869      23.61127659       0.00345302      -0.00214744      -0.00260520
Ti       4.97362091       6.97840686      23.73131396      -0.00779254      -0.00015806      -0.00309490
Ti       1.48767396       4.69501281      24.33211477      -0.00093427      -0.00494128       0.00028977
Ti       4.07422605       9.59696395      24.32143076      -0.00286692       0.00135651       0.01311944
Ti       2.38674792       7.37096973      24.97159277      -0.00693202      -0.00183329       0.00942006
Ti       4.87224757       2.53176130      24.99274909      -0.00366672       0.00146485       0.00395239
Ti       1.47931901       0.26734233      25.68263368       0.00373858       0.00177186       0.01931454
Ti       4.04564794       5.15159843      25.71174812       0.00227517       0.00334441       0.01512897
Ti       2.30592476       2.95712641      26.44821870      -0.00300915       0.00406193       0.01175437
Ti       4.83458405       7.83031573      26.49550337      -0.00146715       0.00183255       0.01940701
Ti       4.06111170       0.77234179      27.12304403      -0.00123327       0.00053008       0.01614206
Ti       1.54357732       5.65034956      27.11970330      -0.00097400       0.00467315       0.01294438
Ti       2.36483051       8.33558373      27.75869723       0.00647579       0.00826031       0.00552677
Ti       4.92631605       3.46609704      27.75018129      -0.00181825       0.00211017       0.00159796
Ti       1.38261766       1.18263347      28.47231677       0.00489899      -0.00058790       0.01187641
Ti       3.92741027       6.05579831      28.51026565       0.00377883       0.00484694       0.01878112
Ti       2.16898746       3.76087146      29.06939667      -0.00059305       0.00493639       0.00756333
Ti       4.69765525       8.63989219      29.10134692      -0.00119878       0.00198111       0.00482108
Ti       1.52749629       6.65049688      29.63511638       0.00023418       0.00196717       0.01838367
Ti       4.08371042       1.78686832      29.62994436       0.00290039      -0.00595544       0.01304130
