64
Lattice="5.088765 0.0 0.0 0.0 9.739025 0.0 0.0 0.0 38.303587" Properties=species:S:1:pos:R:3:forces:R:3 job_name=Segregation-1sol-addvac-T2-V-V-36-d-1.39 top_level=Segregation-1sol-addvac solute=V energy=-484.62810804 stress_kbar_3x3="_JSON [[-12.06720205, -0.78745287, 0.10585203], [-0.7874529, -12.92299502, -0.05394297], [0.10585205, -0.05394298, -0.27356116]]" pbc="T T T"
Ti       2.75941795       9.45025408       8.40219226      -0.00301247       0.00780003       0.01765831
Ti       0.85854306       1.69362988       8.97702453       0.00206663      -0.00193941       0.00714942
Ti       3.54562321       6.69951143       8.90324846       0.00066603      -0.00100229       0.00820029
Ti       0.10078134       8.79802719       9.52773372      -0.00441490       0.01192872       0.00230178
Ti       2.90291893       3.85201660       9.55538293      -0.00461101      -0.00535876      -0.00015533
Ti       1.13664707       6.20288628      10.07408272       0.00252708      -0.00263099       0.00106464
Ti       3.68748597       1.33074879      10.34194811       0.00457854      -0.00022105      -0.01683495
Ti       0.20494536       3.57997014      10.87984923      -0.00062119      -0.00709660      -0.01054273
Ti       2.69414918       8.42994990      10.88769886      -0.00090818      -0.00080939      -0.00310178
Ti       1.07165258       0.90936613      11.57116079      -0.00252567      -0.00017613      -0.00917791
Ti       3.54740431       5.79553918      11.44777680      -0.00220965      -0.00045334       0.00645722
Ti       0.20464166       7.93770462      12.22071031       0.00469517      -0.00189112       0.00789287
Ti       2.79664032       3.15180093      12.27253377       0.00233707       0.00191430      -0.00113163
Ti       1.03091432       5.31151430      12.91232970      -0.00401113       0.00010474       0.01132625
Ti       3.59676486       0.43877795      13.00664910      -0.00493861      -0.00186953       0.01290227
Ti       2.75644270       7.50417757      13.66499133       0.00102301      -0.00159379       0.01133644
Ti       0.22647936       2.63192220      13.65920069       0.00442500       0.00243733       0.01105769
Ti       1.08859706       9.72724555      14.34817839       0.00059222      -0.00079300       0.01091575
Ti       3.63158024       4.87733475      14.33271504      -0.00357423       0.00218962       0.00356660
Ti       0.20109598       7.07780437      15.01092010       0.00088306       0.00577730       0.00204917
Ti       2.75982955       2.21097265      15.06466318      -0.00445048      -0.00803637       0.00332701
Ti       1.10022448       4.44622884      15.67328107       0.00181085       0.00014047      -0.00372360
Ti       3.64836596       9.32634104      15.72418631       0.00300988       0.00131005       0.00374070
Ti       2.77093380       6.68259581      16.42367066      -0.00145004       0.00489706      -0.00323531
Ti       0.26152098       1.78800032      16.46656664       0.00001239      -0.00805702      -0.00123111
Ti       1.06314253       8.82759347      17.06462391       0.00070740      -0.00173026      -0.00718193
Ti       3.58484864       3.96630867      17.06064761       0.00126461      -0.00468781      -0.00111755
Ti       0.16851689       6.09919426      17.76360906      -0.00515387      -0.00376252       0.00590988
Ti       2.76645049       1.22018959      17.92286518       0.00037001      -0.00629854       0.00277111
Ti       1.25769104       3.44696575      18.50944278       0.00209626       0.00137523       0.00729919
Ti       3.85381250       8.30788743      18.54137686      -0.00185936       0.00201233      -0.00224809
Ti       2.53249955       5.79470478      19.16884338       0.00598035      -0.00196792      -0.00046793
Ti       0.17219799       0.94063326      19.23737096       0.00066555       0.00276110      -0.00061086
Ti       3.78366118       3.38307059      19.76186143      -0.00010416       0.00454539       0.01164252
Ti       1.31536024       8.30899090      19.79386849       0.00319089       0.00482063      -0.00151534
Ti       4.94345780       6.10177076      20.49978855      -0.00829899       0.00407855       0.00741167
V        2.52310706       1.24987109      20.58339306      -0.00244619       0.01156165       0.00032719
Ti       3.99534559       8.85495007      21.20653564      -0.00255175       0.00280130       0.00236458
Ti       1.48199424       3.90209643      21.21495428       0.00365803       0.00364244      -0.00452443
Ti       4.83440439       1.80371516      21.88459284       0.00263654       0.00445260      -0.00616696
Ti       2.29701522       6.64233183      21.88773612       0.00364871      -0.00324484      -0.00009853
Ti       1.46187440       9.35354535      22.52314591      -0.00043945      -0.00597987       0.00025426
Ti       3.99708328       4.46292032      22.57803141      -0.00413031       0.00048462      -0.01139685
Ti       4.88803727       7.11647702      23.26658533       0.00145139      -0.00376401      -0.00403367
Ti       2.34396400       2.21697805      23.29741743      -0.00131048       0.00319232      -0.01436001
Ti       4.00731331       0.02926255      23.96141824       0.00134243      -0.00606885      -0.00407350
Ti       1.44550477       4.86527949      23.95439868      -0.00358825       0.00529998      -0.00838159
Ti       2.31439124       7.54015870      24.63386826      -0.00421391       0.00135685      -0.00695105
Ti       4.87235622       2.65850328      24.63713174       0.00096292       0.00599127      -0.00472240
Ti       1.48093369       0.44679009      25.35310785      -0.00100426      -0.00253361      -0.00276871
Ti       4.00508208       5.31653751      25.28603659       0.00552666       0.00511994      -0.00676999
Ti       4.82078257       8.03320659      26.04336281       0.00393058       0.00072065       0.00004815
Ti       2.31665257       3.07588459      26.08098252      -0.00176510      -0.00391846      -0.00167705
Ti       4.06566013       0.93950659      26.82668956       0.00714953      -0.00332633      -0.00133766
Ti       1.46788231       5.78832835      26.70590687       0.00226456       0.00250871      -0.00219276
Ti       2.31868157       8.47637454      27.41662794      -0.00146934      -0.00143801      -0.00063416
Ti       4.91465902       3.59000669      27.41694499      -0.00095176      -0.00000623       0.00237803
Ti       1.37185111       1.34887941      28.21258125      -0.00478654      -0.00225924      -0.00282710
Ti       3.92624883       6.22468501      27.96531409       0.00151227      -0.00346848       0.00092775
Ti       2.41570205       3.95199482      28.76782815       0.00155230       0.00363477      -0.00441982
Ti       4.70295560       8.75543772      28.75196649       0.00298201      -0.00510975      -0.00221876
Ti       1.65081568       6.58333534      29.30503930      -0.00247886      -0.00203412       0.00330573
Ti       4.05654202       1.84779797      29.37632651       0.00046665      -0.00206640      -0.00294936
Ti       4.84225800       4.60417517      29.90375230       0.00129355      -0.00326587      -0.01080613
