52
Lattice="5.088765 0.0 0.0 0.0 5.495746 0.0 0.0 0.0 48.722931" Properties=species:S:1:pos:R:3:forces:R:3 job_name=Segregation-1sol-addvac-C1-V-V-30-d-2.59 top_level=Segregation-1sol-addvac solute=V energy=-397.39394713 stress_kbar_3x3="_JSON [[-18.03190936, -0.00107207, 0.00343636], [-0.00107207, -9.20602236, 1.78781366], [0.00343637, 1.78781363, 0.17153822]]" pbc="T T T"
Ti       5.05152045       1.44083504       9.18316838      -0.00310801      -0.00789597      -0.00658752
Ti       0.86304416       4.18940020       9.18380305       0.00332394      -0.01017506      -0.00650477
Ti       3.52051264       4.89129118      10.23939692      -0.00790246      -0.01062027       0.00098298
Ti       2.39416739       2.14246337      10.23922681       0.00589043      -0.00766788       0.00041049
Ti       0.84657245       0.10307354      11.45163601      -0.00461877      -0.00526851      -0.00335459
Ti       5.06722569       2.85026318      11.45103670       0.00389191      -0.00367905      -0.00276394
Ti       2.56282557       3.69234890      12.68767743      -0.00089928      -0.00814437      -0.00721837
Ti       3.34974767       0.94492076      12.68765718       0.00160875      -0.00842907      -0.00582110
Ti       0.83995164       1.72982025      13.94443853      -0.00348142      -0.00492758      -0.01353082
Ti       5.07187679       4.47785305      13.94389825       0.00284680      -0.00520887      -0.01262061
Ti       3.38018162       2.48372279      15.15400865      -0.00023560      -0.00602572      -0.01231170
Ti       2.53179218       5.23222056      15.15362025       0.00057081      -0.00628987      -0.01300927
Ti       0.82415244       3.26788840      16.38425914      -0.00165799      -0.00483953      -0.00160416
Ti       5.08790301       0.52031784      16.38541770       0.00236016      -0.00538007      -0.00063365
Ti       2.55892289       1.29562642      17.62172406      -0.00107923      -0.00304314       0.00359011
Ti       3.35140105       4.04282586      17.61998436       0.00068406      -0.00244441       0.00577913
Ti       0.80030926       4.84073619      18.85458616      -0.00092107      -0.00381989       0.00935763
Ti       0.02294794       2.09440727      18.85557568       0.00295542      -0.00364753       0.00892693
Ti       3.42271517       0.16097749      20.09455737       0.00352079      -0.00486974       0.00429651
Ti       2.49124803       2.91358374      20.09650036      -0.00304838      -0.00095261       0.00410105
Ti       0.01355999       3.50166949      21.29723613       0.00360997       0.00199978      -0.00071638
Ti       0.80976025       0.75333949      21.29052709      -0.00292877      -0.00323082       0.00041966
Ti       3.08146165       1.83884340      22.56688690       0.00100993       0.00256602       0.01278367
Ti       2.82884325       4.58765043      22.57255559      -0.00150755       0.00351958       0.01424995
Ti       0.90831474       3.08736622      23.90265576       0.00161504       0.00216002      -0.00505851
Ti       5.01406187       0.38930962      23.90297853      -0.00053787       0.00653184      -0.00800350
Ti       2.47408481       0.48469054      24.93968070       0.00333414       0.00231911       0.00088207
Ti       3.45692704       3.16354419      24.93407616      -0.00257513      -0.00032855      -0.00130498
V        0.42024597       1.77701266      26.20284481       0.00406996       0.00216407      -0.01755415
Ti       0.43416666       4.51961156      26.20244805      -0.00269540       0.00354611      -0.01629864
Ti       3.46440006       0.44298928      27.47098258      -0.00423167       0.00565614      -0.00778054
Ti       2.48519854       3.12236545      27.47700340       0.00405836       0.00439313      -0.00602801
Ti       5.03244061       3.05813943      28.50519887      -0.00448353      -0.00071554      -0.00101103
Ti       0.92528103       0.35890571      28.50877294       0.00245022       0.00570341      -0.00357981
Ti       3.09044530       4.51636019      29.83371770       0.00026315       0.00176851      -0.00794199
Ti       2.87642305       1.76826919      29.84078049       0.00189680       0.00255527      -0.01325008
Ti       0.82693268       3.38063091      31.11421103       0.00407607       0.00219864       0.00959119
Ti       0.04949385       0.63319405      31.12208988      -0.00431955      -0.00052997       0.00823287
Ti       2.52164648       0.01950823      32.31496496      -0.00136582       0.00569441      -0.00358087
Ti       3.44257184       2.77212758      32.31387101       0.00083492       0.00742929      -0.00466324
Ti       0.83611630       1.93490042      33.56491940      -0.00617004       0.00681994       0.00500758
Ti       0.04220647       4.68123801      33.56640181       0.00494243       0.00570013       0.00387457
Ti       3.39502034       1.15965235      34.76099456      -0.00812101       0.00791894       0.01426999
Ti       2.57317352       3.90671658      34.76450986       0.00714573       0.00830389       0.01305768
Ti       0.04772958       3.11554425      36.03572517      -0.00268971       0.00262973       0.00932499
Ti       0.83057792       0.36845494      36.03400436       0.00137867       0.00167707       0.00893437
Ti       2.55468403       2.27146617      37.25786463       0.00920781       0.00529170       0.01396107
Ti       3.41474501       5.02102514      37.25734714      -0.00846353       0.00191191       0.01667229
Ti       1.00515569       4.29976859      38.47992540       0.00053335       0.00183761      -0.00038129
Ti       4.96505896       1.55095652      38.48129087      -0.00049427       0.00197494      -0.00108438
Ti       2.53178052       0.85474046      39.52432064       0.00217993       0.00613453       0.00835020
Ti       3.43798785       3.60286222      39.52329533      -0.00272346       0.00772831       0.00714092
