52
Lattice="4.6568 0.0 0.0 0.0 7.770572 0.0 0.0 0.0 41.044546" Properties=species:S:1:pos:R:3:forces:R:3 job_name=Segregation-1sol-addvac-CSL7-Al-Al-33-d-4.09 top_level=Segregation-1sol-addvac solute=Al energy=-390.21376039 stress_kbar_3x3="_JSON [[-15.0901564, 0.66352107, -0.1728456], [0.66352105, -18.26718423, -0.73938664], [-0.1728456, -0.73938664, -2.32193601]]" pbc="T T T"
Ti       2.30982073       7.27322145       8.66890560       0.00265377      -0.00372917       0.00925647
Ti       4.65155934       5.38312230       8.91485820       0.00206224       0.00395025       0.01103367
Ti       2.31514937       2.27365088       9.43456636       0.00160908       0.00134394      -0.00067844
Ti       4.64510302       0.56698314       9.78409037       0.00061985      -0.00113915       0.00415057
Ti       2.32137837       4.99500023      10.39956786       0.00321363       0.00406595       0.00346320
Ti       4.64851031       3.40187644      10.71730678       0.00079237       0.00288618       0.00529522
Ti       2.32064171       0.11851214      11.33020650       0.00164779       0.00369589       0.01742885
Ti       4.65311227       6.15425432      11.57054123       0.00131258       0.00326470       0.00566442
Ti       2.32030344       2.80169711      12.24425973       0.00166320       0.00438821       0.01718952
Ti       4.64826464       1.13683455      12.62250684       0.00127254       0.00721220       0.01745398
Ti       2.32143159       5.60096309      13.15741182       0.00075385      -0.00116806       0.00940133
Ti       4.64921113       3.93508903      13.55387887       0.00159223       0.00577967       0.01260256
Ti       2.32176958       0.60573397      14.20805181       0.00048234      -0.00096343       0.00765933
Ti       0.00133943       6.68869745      14.44440680       0.00156584       0.00281054       0.01320263
Ti       2.31754587       3.35889193      15.12055225       0.00098822      -0.00019746       0.01207939
Ti       4.65609335       1.72004703      15.50721827      -0.00116524      -0.00134893       0.00443711
Ti       2.34341703       6.12942360      15.98134451      -0.00029087       0.00665658       0.00511615
Ti       4.61740537       4.47291635      16.45735687       0.00159593       0.00269721       0.00566389
Ti       2.34225728       1.14400994      17.08462007       0.00099758       0.00514349       0.00701870
Ti       0.01137916       7.24954251      17.24172823       0.00348917       0.00824065       0.01106321
Ti       2.20751365       3.82576660      18.00546446      -0.00060456      -0.00565185       0.00381500
Ti       0.12078681       2.19192880      18.49500438       0.00350514       0.00863190      -0.00245646
Ti       2.28009597       6.62616496      18.67603574      -0.00864453       0.01223888      -0.00291146
Ti       4.09536919       4.85141294      19.36363398       0.00969313      -0.00245557       0.00000547
Ti       2.69099311       1.64257486      20.06288766      -0.00128131      -0.00474141      -0.00273156
Ti       0.37539222       7.65017083      20.08266553      -0.00056595      -0.00686757      -0.00411585
Ti       1.23210494       4.82842895      20.72813400      -0.01120686       0.00092957      -0.00250687
Ti       3.01477124       6.63073439      21.37383949       0.00103739       0.01177543       0.00471993
Ti       0.60882457       2.20059370      21.67980052      -0.00143240       0.00594892       0.00108685
Ti       3.11968174       3.84253204      22.10767280      -0.00503682      -0.00627007      -0.00585826
Ti       0.73654467       7.29050444      22.92775575       0.00040125       0.00119240      -0.00082075
Ti       3.03609620       1.12325844      23.04748191      -0.00258571       0.00368259      -0.00263304
Ti       0.78709062       4.52951883      23.67983130      -0.00165814      -0.00389045      -0.00165813
Al       3.08339885       6.10152694      24.06442979      -0.00203159       0.00387531       0.00200037
Ti       0.72445199       1.77412273      24.60088667      -0.00002610      -0.00427321       0.00087371
Ti       3.06778078       3.39075610      24.98668809      -0.00266670      -0.00129584      -0.00936347
Ti       0.74783133       6.62995313      25.59448165       0.00035205      -0.00250080      -0.00609029
Ti       3.05407782       0.57760496      25.85408246      -0.00176784      -0.00408401      -0.00708895
Ti       0.74058758       3.88108312      26.60751852      -0.00078286      -0.00547213      -0.00942924
Ti       3.06304256       5.54154127      26.84659907      -0.00043389      -0.01092135      -0.00840922
Ti       0.73334898       1.10896915      27.50127916      -0.00093977       0.00028836      -0.01880588
Ti       3.06777931       2.76845231      27.83932598      -0.00008689      -0.00859660      -0.01200691
Ti       0.73607247       6.07712396      28.44502633      -0.00005850       0.00274719      -0.01574041
Ti       3.06146657       7.74904954      28.75854461       0.00018934      -0.00499235      -0.01915495
Ti       0.74009345       3.32683200      29.45857556      -0.00005973      -0.00096025      -0.01048249
Ti       3.06733516       5.04843880      29.70092172      -0.00001382       0.00018369      -0.01903643
Ti       0.73151010       0.58295291      30.31546910       0.00020207      -0.00647011      -0.00558882
Ti       3.06281964       2.16453392      30.60968652      -0.00028634      -0.00115113      -0.00405928
Ti       0.73819690       5.50630986      31.25759450      -0.00019428      -0.00878568      -0.00306017
Ti       3.06547428       7.21014535      31.57151131      -0.00039083      -0.00208512       0.00037365
Ti       0.73205347       2.56919758      32.10694509      -0.00018887      -0.00120181      -0.01000779
Ti       3.06659781       4.44857150      32.36504342       0.00070781      -0.01241620      -0.00736008
