64
Lattice="5.088765 0.0 0.0 0.0 9.739025 0.0 0.0 0.0 38.303587" Properties=species:S:1:pos:R:3:forces:R:3 job_name=Segregation-1sol-addvac-T2-Al-Al-50-d-6.29 top_level=Segregation-1sol-addvac solute=Al energy=-480.6709265 stress_kbar_3x3="_JSON [[-11.53921855, 2.13866769, 0.16872785], [2.13866769, -13.07199512, 0.24711848], [0.16872781, 0.24711849, -0.68079044]]" pbc="T T T"
Ti       0.27007947       4.57985061       8.65268479      -0.00240019      -0.00343849      -0.00738523
Ti       2.81380279       9.44869498       8.65284494      -0.00484583      -0.00274461      -0.00911415
Ti       3.43337558       6.54272765       9.20034041      -0.00734196       0.00054937      -0.00015926
Ti       0.88968248       1.67311625       9.19968983      -0.00778102       0.00285366       0.00158598
Ti       0.11885157       8.83139142       9.80061182       0.00524490      -0.00287110       0.00290389
Ti       2.66385506       3.96276428       9.80005211       0.00322952      -0.00364187       0.00205517
Ti       1.12181687       6.24422357      10.55638703       0.00372242       0.00622494       0.01004516
Ti       3.66647272       1.37475739      10.55495904       0.00490983       0.00931833       0.01130470
Ti       2.79920737       8.43554161      11.14918998      -0.00390958      -0.00381555       0.01479494
Ti       0.25519902       3.56647248      11.14802365      -0.00399098      -0.00433542       0.00877496
Ti       1.05973612       0.89778047      11.81771081      -0.00131006       0.00370678       0.00020583
Ti       3.60428150       5.76806875      11.81922482      -0.00122359       0.00265341       0.00115141
Ti       0.22741077       7.98141473      12.60204976      -0.00174297      -0.00218934       0.00282198
Ti       2.77255046       3.11197066      12.59925222      -0.00152872      -0.00095722       0.00103705
Ti       1.03814247       5.30928973      13.28158272      -0.00027239       0.00114806       0.00252731
Ti       3.58282829       0.43929722      13.28051030      -0.00004237      -0.00060888       0.00186898
Ti       0.20682444       2.63083587      13.95836805       0.00193657      -0.00174292       0.00367053
Ti       2.75080919       7.49958093      13.96053773       0.00258080      -0.00159553       0.00540573
Ti       1.09272348       0.00690036      14.67975431       0.00016865      -0.00216581       0.00609257
Ti       3.63652620       4.87740840      14.67974556       0.00073533       0.00080026       0.00730470
Ti       0.20877061       7.08258862      15.35739472       0.00019628      -0.00101412       0.00454455
Ti       2.75339851       2.21526336      15.35146162       0.00026256      -0.00099692       0.00585149
Ti       3.64755217       9.31609750      16.01777860      -0.00156218      -0.00189798       0.00035731
Ti       1.10338081       4.44853522      16.01988777      -0.00101551       0.00067673       0.00159995
Ti       0.22598855       1.80705657      16.76000954       0.00179808      -0.00008083       0.00019877
Ti       2.77024971       6.67967237      16.76648838       0.00282561      -0.00148351      -0.00083530
Ti       1.02624986       8.82350808      17.40241276       0.00158158      -0.00136159      -0.00372254
Ti       3.57238047       3.95036412      17.40029181       0.00145103       0.00106798      -0.00100018
Ti       2.69893249       1.19798103      18.12564265      -0.00273083      -0.00047748       0.00308599
Ti       0.14966829       6.05825397      18.13382444      -0.00397450      -0.00347808       0.00064965
Ti       3.82733800       8.27503090      18.90022170       0.00163530      -0.00285928       0.00153036
Ti       1.28058964       3.40328983      18.89822721       0.00212323      -0.00196196       0.00052476
Ti       2.54866985       5.78071344      19.48671786       0.00168758       0.00051540      -0.00022034
Ti       0.00114206       0.91296671      19.49739982      -0.00018062       0.00284117       0.00386666
Ti       1.27508682       8.30688035      20.11904211       0.00071064      -0.00188289       0.00595169
Ti       3.81944169       3.44088245      20.12429263      -0.00100513      -0.00245919       0.00282910
Ti       2.35904176       1.26775006      20.87191796       0.00422049       0.00190516       0.00448731
Ti       4.88164164       6.14215111      20.89028702       0.00249008       0.00502799       0.00061787
Ti       1.48130088       3.99557850      21.61119646       0.00273685       0.00067078      -0.00148322
Ti       4.04314203       8.84714600      21.62638905       0.00006313       0.00468705      -0.00070056
Ti       2.30167112       6.70904414      22.23047180      -0.00130563       0.00308336      -0.00338679
Ti       4.86822929       1.82645780      22.25308086      -0.00263316      -0.00201089      -0.00199386
Ti       1.45542580       9.32966692      22.96279385       0.00135429       0.00275754      -0.00737124
Ti       3.96974297       4.47027284      22.98006591      -0.00290151       0.00074970      -0.00638618
Ti       2.36244552       2.20763536      23.62747373       0.00077178      -0.00111211      -0.00994546
Ti       4.94887826       7.10097285      23.68087035       0.00043479       0.00119835      -0.00795228
Ti       4.03762395       9.71952008      24.36076389       0.00172646       0.00147812      -0.00920611
Ti       1.50570914       4.84486385      24.36662918       0.00870321       0.00048606      -0.00670590
Ti       2.39319834       7.53214892      24.98226507      -0.00053817      -0.00394689      -0.00655414
Ti       4.87307237       2.67592885      25.01518343      -0.00121615      -0.00217668      -0.00656269
Al       4.05874518       5.33339359      25.70895695      -0.00101670      -0.00372597      -0.00377752
Ti       1.48697662       0.45101660      25.71785370      -0.00018261       0.00422318      -0.00562127
Ti       4.85303578       7.97312243      26.48138057      -0.00162281       0.00585742      -0.00338815
Ti       2.43642875       3.11733685      26.52744717      -0.00095022       0.00268122      -0.00277583
Ti       1.53974587       5.77478615      27.06985926       0.00704677       0.00261196      -0.01144232
Ti       4.07775140       0.89755614      27.14147955      -0.00297445       0.00140906       0.00290752
Ti       4.99807541       3.58364333      27.68620850       0.00521898      -0.00748484       0.00190147
Ti       2.35590961       8.47767696      27.76132674       0.00449910       0.00190778       0.00034952
Ti       3.86089778       6.13240250      28.46882125      -0.00044150      -0.00087125      -0.00110172
Ti       1.38696434       1.31783463      28.51573070      -0.00427043       0.00292098      -0.00288450
Ti       4.67699095       8.72152724      29.09540921      -0.00186325       0.00186424      -0.00291917
Ti       2.10393742       3.90725428      29.12841491      -0.01214063      -0.00314831      -0.00137584
Ti       1.45254725       6.73733583      29.58401010      -0.00393836      -0.00128640      -0.00039967
Ti       4.07344274       1.95546404      29.61399818       0.00878817      -0.00205217       0.00156657
