52
Lattice="5.088765 0.0 0.0 0.0 5.495746 0.0 0.0 0.0 48.722931" Properties=species:S:1:pos:R:3:forces:R:3 job_name=Segregation-1sol-addvac-C1-Al-Al-34-d-5.07 top_level=Segregation-1sol-addvac solute=Al energy=-392.38138917 stress_kbar_3x3="_JSON [[-12.09840006, -0.37246032, 2.65882847], [-0.37246032, -17.28928492, 0.05031102], [2.65882846, 0.05031103, 0.04443889]]" pbc="T T T"
Ti       2.00993018       0.55399356       8.89739319       0.00068339       0.00380132       0.00527760
Ti       0.15446648       4.24369146       9.38270655       0.00029748      -0.00323498      -0.00006846
Ti       4.63070150       1.50656122       9.79552668      -0.00099885       0.00543501       0.00164185
Ti       2.16525043       2.51579596      10.48728865       0.00103211      -0.00645564      -0.00611651
Ti       3.34869547       4.90999784      11.02457679      -0.00047242      -0.00146441      -0.00731584
Ti       0.85285061       0.25297893      11.64881744      -0.00305217       0.00580738      -0.00331983
Ti       0.07604979       3.01587298      12.07539161      -0.00283286      -0.00535403      -0.00588751
Ti       3.14947378       1.28225579      13.06093647       0.00356720       0.00660954      -0.00322028
Ti       2.40822630       4.03859761      13.39176286       0.00184774      -0.00273825      -0.00014318
Ti       4.96841127       4.81627747      14.26313668      -0.00185505      -0.00260390       0.00192982
Ti       0.89736036       1.95007984      14.54322233      -0.00000992       0.00173173       0.00047046
Ti       3.45900306       2.71595574      15.59117090      -0.00076895       0.00090380       0.00613843
Ti       2.66570561       5.48778858      15.71778288      -0.00070567      -0.00179090       0.00555983
Ti       0.79504727       3.61702411      16.81055602      -0.00113247       0.00071030       0.00764815
Ti       5.08471507       0.85578078      16.96596104      -0.00092733      -0.00097929       0.00680768
Ti       2.53723735       1.63556436      18.06389773      -0.00099202       0.00059414       0.00270895
Ti       3.42542974       4.32465612      18.19346551       0.00024786      -0.00133434       0.00170506
Ti       0.89480941       5.11581618      19.30950090       0.00047715      -0.00035751      -0.00360811
Ti       0.09954774       2.36132587      19.38568809       0.00034890       0.00009793      -0.00373195
Ti       3.34146123       0.46509605      20.54705356      -0.00017436      -0.00055702      -0.00658432
Ti       2.55341189       3.20607914      20.65285086      -0.00049416      -0.00010420      -0.00647171
Ti       5.08316074       3.95580180      21.73256246       0.00071079      -0.00004479      -0.00514153
Ti       0.84346152       1.17062905      21.88845352       0.00058704      -0.00162163      -0.00417286
Ti       3.44194125       1.97459214      22.98035032      -0.00135822      -0.00114262      -0.00015614
Ti       2.75246016       4.72426653      23.05252607       0.00055350      -0.00001706      -0.00342350
Ti       0.74284933       2.86262625      24.19508853       0.00051845       0.00024425       0.00428077
Ti       0.10538032       0.11267283      24.57482444      -0.00021850       0.00060480      -0.00052473
Ti       3.15268129       1.92798730      25.66600476      -0.00014441       0.00065334      -0.00127786
Ti       2.56280213       4.64732101      25.76234755       0.00022569      -0.00022197       0.00007103
Ti       0.03228784       3.83122047      26.89888515      -0.00077789      -0.00234036       0.00302786
Ti       0.98154089       1.11530757      27.06075689      -0.00454650       0.00222121       0.00368067
Ti       3.52242375       0.51287654      27.99404218       0.00329138       0.00141806       0.00487325
Ti       2.63395097       3.24050200      28.22402965      -0.00004989      -0.00170160       0.00531200
Ti       0.70465238       5.10482354      29.37496397      -0.00022309       0.00072172       0.00266818
Al       0.06358903       2.35818001      29.38870948       0.00288758       0.00063455      -0.00641674
Ti       2.60991909       1.47374729      30.50771956      -0.00257095       0.00249528       0.00069662
Ti       3.51454362       4.24581930      30.72848759       0.00301618      -0.00109897      -0.00109438
Ti       0.93700837       3.60094435      31.71684064      -0.00287545      -0.00269873      -0.00321691
Ti       5.08601885       0.87319457      31.88286228       0.00309395       0.00386875      -0.00437171
Ti       2.46369600       0.00183662      33.07869221      -0.00094030       0.00121881       0.00364474
Ti       3.23302127       2.76163678      33.04539221      -0.00027466      -0.00674883       0.00956349
Ti       5.04500280       4.69726623      34.15227244      -0.00232586       0.00135382       0.00384457
Ti       0.90437024       2.04222784      34.44299547       0.00076951      -0.00299957       0.00029473
Ti       3.46890731       1.27279856      35.34068086      -0.00168017      -0.00082092      -0.00146261
Ti       2.71933781       4.02841629      35.63754502      -0.00120484       0.00643207       0.00362889
Ti       0.72423773       0.27675160      36.64422345       0.00349060      -0.00201776      -0.00323484
Ti       5.02519176       3.01132267      37.04819355      -0.00058555       0.00350153      -0.00642625
Ti       2.52644982       2.18290870      37.69510497       0.00189767      -0.00593643      -0.00199762
Ti       3.70176898       5.27726123      38.21513662       0.00049880      -0.00106750      -0.00436100
Ti       1.24225143       4.26449222      38.92052913       0.00250755       0.00802123      -0.00350455
Ti       0.62137036       1.51104384      39.32570832       0.00358985      -0.00589152       0.00610520
Ti       3.86545741       3.31723465      39.81158996      -0.00194783       0.00426418       0.00567107
