52
Lattice="5.088765 0.0 0.0 0.0 5.495746 0.0 0.0 0.0 48.722931" Properties=species:S:1:pos:R:3:forces:R:3 job_name=Segregation-1sol-addvac-C1-V-V-34-d-5.07 top_level=Segregation-1sol-addvac solute=V energy=-396.82665471 stress_kbar_3x3="_JSON [[-11.99411313, -0.54590992, 0.31559191], [-0.54590992, -12.06671053, -3.05187768], [0.31559189, -3.0518777, -0.89689644]]" pbc="T T T"
Ti       1.94092256       1.03338161       8.98494762      -0.00603128       0.00781939       0.00904784
Ti       4.56341259       2.00466049       9.88981374       0.00471571      -0.00896524       0.00872446
Ti       0.08056520       4.73880409       9.46557140       0.00219192       0.01527380       0.00842437
Ti       3.28840123       5.39876219      11.11716247       0.00946500       0.01404897      -0.00383508
Ti       2.09901173       3.01488033      10.55884790      -0.00213507      -0.00298249       0.00052596
Ti       0.04145160       3.52978839      12.17384022      -0.00237342       0.00585725      -0.00304545
Ti       0.79714136       0.75999994      11.72875536      -0.00704081       0.00442060      -0.00884351
Ti       2.37302440       4.57334803      13.49588016       0.00419578       0.00482202      -0.00123559
Ti       3.09712851       1.81342332      13.13560670       0.00295357       0.00619336      -0.00492124
Ti       0.87004275       2.49194610      14.64211963      -0.00367291       0.00159586      -0.00003700
Ti       4.93224390       5.36442051      14.35735528      -0.00470042       0.00805038      -0.00731416
Ti       3.44374003       3.26172039      15.68695758       0.00386761      -0.00235431       0.00437407
Ti       2.65068487       0.54944656      15.80879686      -0.00138788       0.00579574       0.00065740
Ti       0.77686233       4.17975567      16.90151984      -0.00172488       0.00367264       0.00302401
Ti       0.02400543       1.42338449      17.06313809      -0.00406426       0.00538468      -0.00072744
Ti       3.41284463       4.96086482      18.27593989       0.00096520       0.00652730       0.00297041
Ti       2.54890822       2.25183213      18.18565838       0.00146389       0.00028554       0.00545926
Ti       0.91144009       0.23536339      19.43413922       0.00102850       0.00163425       0.00522853
Ti       0.06770102       2.98794981      19.44455089       0.00054799       0.00072490       0.00426868
Ti       3.37393102       1.06554813      20.65844095       0.00012798       0.00233622      -0.00144857
Ti       2.63763880       3.80727784      20.71745634      -0.00055355       0.00126698      -0.00185053
Ti       0.07509367       4.66610960      21.91884548      -0.00104583       0.00324943      -0.00384290
Ti       0.83417323       1.91292131      21.93186934       0.00065922       0.00000008      -0.00236056
Ti       3.48845929       2.73840117      23.16991762      -0.00120983      -0.00000153      -0.00788303
Ti       2.53842802       5.48937582      23.15408659      -0.00008348       0.00402603      -0.00709450
Ti       0.85071599       3.36543365      24.36784609       0.00037638      -0.00052540      -0.00536121
Ti       0.08252328       0.61416814      24.37088101      -0.00130146      -0.00092413      -0.00530009
Ti       2.90964909       1.78242240      25.63519835      -0.00307664      -0.00077830       0.00111494
Ti       3.10209376       4.52794880      25.64434209       0.00362128      -0.00185918       0.00383217
Ti       5.04124769       3.09846933      26.98720097       0.00430843       0.00005749       0.01098647
Ti       0.96339056       0.40850490      26.99267419      -0.00239649      -0.00363603       0.01280604
Ti       3.51242558       0.44259850      27.98986460      -0.00307404       0.00007600       0.00990173
Ti       2.48244998       3.13120674      28.00044922      -0.00225567      -0.00217637       0.00642829
Ti       0.50494784       4.55772778      29.31741367       0.00268867       0.00001476      -0.00313097
V        0.38110485       1.79177633      29.28171739       0.00017446      -0.00217721       0.00089590
Ti       2.53199393       0.62769160      30.49391913      -0.00615628      -0.00345299      -0.00745790
Ti       3.45453396       3.35196225      30.54510293       0.00445769      -0.00308305      -0.00805116
Ti       0.91090293       2.95818926      31.58661087       0.00311090      -0.00415004      -0.00656701
Ti       5.01853016       0.24713198      31.73232349       0.00144007       0.00125486      -0.00653899
Ti       2.52997416       4.74190776      32.95126500      -0.00514896      -0.00502607      -0.00639729
Ti       3.23207026       2.02617696      32.93182523      -0.00151962      -0.01163279       0.00689196
Ti       5.08398981       3.95143804      34.06704471       0.00153891      -0.00464695      -0.00057775
Ti       0.94203964       1.29824798      34.31828149       0.00558079      -0.00275253      -0.00437131
Ti       3.50444854       0.53673096      35.22560783      -0.00519762       0.00090137      -0.00440967
Ti       2.75043816       3.28754658      35.54023546      -0.00083850      -0.00813363      -0.00283565
Ti       0.77122499       5.04997173      36.54143288       0.00251497      -0.00080453      -0.00159934
Ti       5.07641769       2.28089727      36.93686833       0.00054487      -0.00779908      -0.00523310
Ti       2.58180868       1.45068031      37.59234704       0.00563791      -0.01294439      -0.01207639
Ti       3.75826811       4.54587738      38.10595024       0.00120082       0.00236548       0.00185150
Ti       0.68310624       0.78555883      39.21809400      -0.01073171      -0.00539831       0.01241562
Ti       1.29614837       3.54150282      38.80930800      -0.00061504      -0.00060889       0.01065436
Ti       3.91705326       2.59377039      39.71103810       0.00895713      -0.01084193       0.00386346
