64
Lattice="5.872 0.0 0.0 0.0 6.890708 0.0 0.0 0.0 43.394398" Properties=species:S:1:pos:R:3:forces:R:3 job_name=Segregation-1sol-addvac-T1g-V-V-46-d-6.48 top_level=Segregation-1sol-addvac solute=V energy=-485.95447538 stress_kbar_3x3="_JSON [[-6.35652672, -2.736e-05, -0.01602496], [-2.735e-05, -8.73269161, -2.61164136], [-0.01602493, -2.61164135, -0.49408434]]" pbc="T T T"
Ti       4.40564355       5.17635421       8.58499721       0.00101762       0.01676681      -0.01073148
Ti       1.46843412       5.11647611       8.72487162       0.00063890       0.01158180       0.00084602
Ti       5.75074490       3.09959178       9.52569491      -0.00022979       0.00529061       0.00394977
Ti       3.05974936       3.09901063       9.52141858       0.00239747       0.00454292       0.00106275
Ti       0.00022928       6.84085811      10.16058910       0.00252834       0.00819345       0.00473310
Ti       2.93607457       6.84119437      10.16028330      -0.00199308       0.00878914       0.00429649
Ti       4.40043180       1.95166279      11.54380026      -0.00272627       0.01364613      -0.00504949
Ti       1.47174232       2.02860809      11.46294104       0.00255294       0.01209463      -0.00947383
Ti       1.46767910       4.89094647      11.63990114      -0.00052610       0.01712808       0.00100363
Ti       4.40295107       4.86286059      11.53582276      -0.00103665       0.01109942      -0.00558313
Ti       0.01920717       0.02524853      12.96791698       0.00209079       0.01321336      -0.00963136
Ti       2.91577379       0.02503803      12.96826608      -0.00279443       0.01326543      -0.00961264
Ti       2.92702508       3.11470132      13.53581477      -0.00287566       0.00301366      -0.00349595
Ti       0.00833735       3.11422137      13.53290781       0.00248514       0.00272031      -0.00574277
Ti       4.40432518       5.25098328      14.67445843       0.00023880       0.01084241      -0.00541226
Ti       1.46708204       5.26039198      14.69460282      -0.00052861       0.01060119      -0.00195328
Ti       4.40378143       1.19783705      15.14883132      -0.00003429       0.00331277       0.00389039
Ti       1.46769191       1.20700681      15.17926116      -0.00023872       0.00538300       0.00516884
Ti       2.94122278       3.37425954      16.33793544       0.00011681       0.00778582       0.00691839
Ti       5.86647811       3.37443551      16.33624134      -0.00022384       0.00789442       0.00608464
Ti       2.93831179       6.28102836      16.90705142       0.00108968       0.00198700       0.00418571
Ti       5.86931732       6.28075621      16.90701263      -0.00097332       0.00190763       0.00435234
Ti       4.40403709       1.57450593      18.06557707       0.00014639       0.00287334      -0.00109694
Ti       1.46778181       1.57314769      18.07464441      -0.00010346       0.00360595       0.00089795
Ti       4.40403440       4.39990738      18.58216360       0.00023219       0.00321012       0.00109502
Ti       1.46777847       4.40530076      18.58106408      -0.00023130       0.00346504       0.00082504
Ti       2.93666846       6.59040874      19.74005489       0.00022363       0.00045745      -0.00095633
Ti       5.87122725       6.59036889      19.74014677      -0.00023169       0.00028836      -0.00126291
Ti       2.93667982       2.58308974      20.31148467      -0.00000194       0.00213288       0.00090180
Ti       5.87116410       2.58299931      20.31166699      -0.00014028       0.00216456       0.00093256
Ti       1.46798797       4.77180455      21.47187960      -0.00000426      -0.00030934      -0.00011093
Ti       4.40395458       4.77032466      21.46862212      -0.00011349      -0.00067368      -0.00020495
Ti       4.40395186       0.71921246      21.98397183      -0.00008384      -0.00041938       0.00153340
Ti       1.46797097       0.71727909      21.98720232       0.00005164      -0.00047847       0.00250161
Ti       0.00221844       2.89251038      23.14389610       0.00082414      -0.00069231      -0.00166121
Ti       2.93378662       2.89257184      23.14384978      -0.00100005      -0.00098277      -0.00184261
Ti       5.86937755       5.81079343      23.70725982       0.00145546      -0.00152178      -0.00093093
Ti       2.93855416       5.81079248      23.70727221      -0.00149607      -0.00156393      -0.00094265
Ti       4.40400227       3.93514113      25.35675492      -0.00004037      -0.00705714       0.00196606
Ti       1.46799455       3.93832605      25.33630491       0.00001118      -0.00709456       0.00195225
Ti       4.40398766       1.09392849      24.89687374      -0.00000579      -0.00303655       0.00443527
Ti       1.46798267       1.07875143      24.92243470       0.00003612      -0.00346612       0.00323951
Ti       5.81476818       6.05371448      26.54426129       0.00140746       0.00601192       0.00453647
Ti       2.99326737       6.05374046      26.54427677      -0.00143359       0.00585572       0.00445100
Ti       2.95579018       2.24385777      27.07658138      -0.00037810      -0.01581348      -0.00035531
Ti       5.85219724       2.24386822      27.07647304       0.00046384      -0.01609225      -0.00023452
V        4.40397010       0.43707770      28.49377823      -0.00013209      -0.00047073       0.00221874
Ti       1.46805989       0.31674183      28.49743586       0.00007886      -0.00574986       0.00111985
Ti       1.46802394       4.33202756      28.43111431       0.00000059      -0.00781762       0.00200240
Ti       4.40401267       4.40480932      28.43099553      -0.00002340      -0.00588989       0.00158100
Ti       2.96199961       2.29195141      29.86316961       0.00102078      -0.00978916       0.00854465
Ti       5.84609744       2.29195336      29.86313615      -0.00116630      -0.00987724       0.00839097
Ti       3.01226574       6.01486905      30.37522433       0.00174800      -0.00755906       0.00065405
Ti       5.79577164       6.01486299      30.37517920      -0.00176920      -0.00735329       0.00030883
Ti       4.40420585       3.92180529      31.62842844      -0.00018394      -0.00993787      -0.00288585
Ti       1.46797945       3.94458193      31.63470879       0.00009811      -0.01118976      -0.00202438
Ti       4.40398091       1.04272469      31.94293538       0.00005454      -0.00579118      -0.01289889
Ti       1.46795718       1.00344096      31.92082101      -0.00006589      -0.00707265      -0.01216375
Ti       2.93684797       5.89011842      33.18616557       0.00069942      -0.01726262      -0.00172636
Ti      -0.00060699       5.89006552      33.18597329      -0.00067908      -0.01676869      -0.00125766
Ti       0.05541705       2.85415745      33.75134553       0.00030834      -0.00682766      -0.00426216
Ti       2.88081113       2.85422265      33.75134377      -0.00062176      -0.00666553      -0.00459730
Ti       1.46851427       0.78825505      34.74504809      -0.00072066      -0.01258653       0.01005246
Ti       4.40393449       0.78096551      34.71863917       0.00079013      -0.01331421       0.00746886
