52
Lattice="5.088765 0.0 0.0 0.0 5.495746 0.0 0.0 0.0 48.722931" Properties=species:S:1:pos:R:3:forces:R:3 job_name=Segregation-1sol-addvac-C1-V-V-28-d-1.38 top_level=Segregation-1sol-addvac solute=V energy=-397.32756937 stress_kbar_3x3="_JSON [[-21.25985026, 0.01630217, -0.07497435], [0.01630219, -8.17008019, 1.28104731], [-0.07497435, 1.28104733, -1.38945561]]" pbc="T T T"
Ti       2.51756583       0.14741598      39.55231707       0.00022066       0.00172788      -0.01013188
Ti       0.72195714       1.49387322       9.11429676       0.01183042      -0.01412639       0.00630993
Ti       0.13869453       4.24188924       9.11460883      -0.01116326      -0.00921001       0.00405469
Ti       2.51469830       3.09119652      10.28508771      -0.01029730      -0.00339305      -0.00010108
Ti       3.43501174       0.34416638      10.28484168       0.01291134      -0.00149111       0.00103001
Ti       0.87247104       0.22445488      11.37287373       0.00688191      -0.00673699       0.00040601
Ti       5.07767271       2.97201092      11.37301958      -0.00679001      -0.01108231       0.00137931
Ti       3.06075536       1.58731593      12.66743172      -0.00117356      -0.00128130       0.00237749
Ti       2.89031573       4.33557373      12.66779676       0.00061856      -0.00097691       0.00302850
Ti       0.00489127       5.46857504      13.95887422       0.00465391      -0.00056861       0.00556142
Ti       0.85878572       2.72044814      13.95891925      -0.00309738      -0.00260325       0.00733115
Ti       3.44068949       3.17818167      15.10521983       0.00183354       0.00316584       0.00979179
Ti       2.51247970       0.43036718      15.10492037      -0.00317348       0.00326237       0.01002203
Ti       0.75535537       4.11456185      16.38598415       0.00468648       0.00104157       0.00072009
Ti       0.11068200       1.36608997      16.38593041      -0.00348446      -0.00062005       0.00142857
Ti       2.60379652       2.22553053      17.63246852      -0.00055690      -0.00273817      -0.00352570
Ti       3.34996858       4.97423992      17.63308671      -0.00023303      -0.00156181      -0.00328002
Ti       0.90726084       0.26865749      18.86813408       0.00285394       0.00010702      -0.00091977
Ti       5.04730923       3.01254810      18.86714453      -0.00080175      -0.00064849       0.00224112
Ti       3.36339478       0.88004771      20.06355605      -0.00230237       0.00001384       0.00454466
Ti       2.59357099       3.62705825      20.05845622       0.00122895      -0.00008389       0.00305091
Ti       0.31724252       4.72901602      21.34449726      -0.00052501      -0.00224082       0.00691349
Ti       0.55424827       1.98111673      21.35040863       0.00135544      -0.00224853       0.00357308
Ti       2.48782739       0.48598461      22.67704497       0.00333827      -0.00677990       0.00104145
Ti       3.46335078       3.28265782      22.67627951      -0.00376266       0.00685898       0.00031354
Ti       0.91425820       3.37696230      23.71735425       0.00062970       0.00951717      -0.00195099
Ti       5.02955331       0.56177136      23.71231484       0.00068735      -0.00569435      -0.00392331
Ti       2.96227332       1.92381567      24.98207708      -0.00164938       0.00247944      -0.00468558
V        2.97186616       4.67679242      24.98235285      -0.00133888      -0.00505971      -0.00502695
Ti       5.01902602       3.34620884      26.25025642      -0.00156913       0.00830265       0.00037542
Ti       0.90991623       0.53066889      26.25607994      -0.00108041      -0.00649115      -0.00238167
Ti       3.45064931       0.46649593      27.28517989      -0.00206989      -0.00788376       0.00205659
Ti       2.47094803       3.26259799      27.28790464       0.00226964       0.00884062       0.00225658
Ti       0.51823100       4.67299429      28.62126932       0.00215430      -0.00186708       0.00150164
Ti       0.30724824       1.92442547      28.61646176       0.00284217       0.00331737       0.00202122
Ti       2.56166296       0.78410960      29.89685938      -0.00294380       0.00515394      -0.00118518
Ti       3.35518862       3.53180240      29.90244016       0.00031511       0.00120018      -0.00461897
Ti       5.03510445       0.20739395      31.09078482       0.00046344       0.00363969      -0.00123205
Ti       0.88575163       2.95071775      31.09280861       0.00053440       0.00574373      -0.00332297
Ti       3.32286794       2.09424423      32.33935020      -0.00068631       0.00481999      -0.00185772
Ti       2.59772753       4.84323506      32.33886900      -0.00222614      -0.00111758      -0.00179390
Ti       0.81850948       1.23614462      33.58710580       0.00094256       0.00189020      -0.00376536
Ti       0.01197711       3.98472334      33.58602478       0.00039794      -0.00033616      -0.00374739
Ti       2.51787251       3.25056915      34.79387469      -0.00197731       0.00370125      -0.00448740
Ti       3.40328789       0.50262268      34.79539215       0.00118706       0.00298789      -0.00400002
Ti       0.79438356       5.20487881      36.03646065      -0.00139654       0.00203631      -0.00445445
Ti       0.03816537       2.45735309      36.03657356       0.00153674       0.00284345      -0.00346073
Ti       2.53573975       1.56955843      37.28242988      -0.00181545       0.00262987       0.00462457
Ti       3.38496609       4.31718729      37.28232199       0.00155731       0.00191447       0.00385883
Ti       0.97454088       3.62477036      38.48400738       0.00025645       0.00413721      -0.00368332
Ti       4.94614317       0.87700347      38.48342002      -0.00147941       0.00412187      -0.00371646
Ti       3.40290448       2.89539308      39.55308215      -0.00059375       0.00138656      -0.01056124
