64
Lattice="5.088765 0.0 0.0 0.0 9.739025 0.0 0.0 0.0 38.303587" Properties=species:S:1:pos:R:3:forces:R:3 job_name=Segregation-1sol-addvac-T2-V-V-46-d-4.86 top_level=Segregation-1sol-addvac solute=V energy=-484.52956917 stress_kbar_3x3="_JSON [[-13.06962425, -3.58087624, 0.60051784], [-3.58087625, -14.3901417, -1.23487427], [0.60051784, -1.23487428, -2.49291494]]" pbc="T T T"
Ti       3.55258805       6.80190841       8.63967561       0.00153298       0.00223504       0.00581874
Ti       1.00707087       1.93311843       8.63869574       0.00127890       0.00014856       0.00901146
Ti       2.93012623       3.90086611       9.20571882      -0.00610557      -0.00449624       0.00337618
Ti       0.38655068       8.76823823       9.20537806      -0.00253083      -0.00846881       0.00413084
Ti       1.15956484       6.19541595       9.79806648       0.00241095       0.00910183      -0.00029050
Ti       3.70299294       1.32555042       9.79805291       0.00275062       0.00507019       0.00235434
Ti       2.71348528       8.46816853      10.54301437      -0.00079653      -0.01408483      -0.01131451
Ti       0.16869355       3.59968964      10.54481555       0.00130134      -0.01294331      -0.00438799
Ti       3.57641387       5.80180699      11.14728826       0.00003589       0.00425672      -0.00318218
Ti       1.03198935       0.93149498      11.14663055      -0.00016615       0.00158968       0.00134536
Ti       0.23942630       7.99890380      11.83476414       0.00235101       0.00189478      -0.00005757
Ti       2.78271307       3.13035126      11.83701790       0.00151619      -0.00227641       0.00688079
Ti       1.04947834       5.33331288      12.59602494      -0.00160128      -0.00106087       0.00086819
Ti       3.59367447       0.46460978      12.59473605       0.00019079       0.00075075       0.00328801
Ti       0.23254220       2.66206376      13.29077093       0.00035665      -0.00360518       0.00139289
Ti       2.77792936       7.53179461      13.29014881       0.00042547      -0.00012056      -0.00119220
Ti       3.62701924       4.87860634      13.98166926       0.00214887      -0.00340372      -0.00155289
Ti       1.08098343       0.01225374      13.97931266       0.00073555       0.00179457      -0.00143229
Ti       0.19919981       7.11428704      14.66404078      -0.00287892       0.00255840      -0.00651857
Ti       2.74241692       2.24493324      14.66694939      -0.00199350       0.00058808      -0.00800508
Ti       1.09374432       4.46638048      15.34076403      -0.00017909      -0.00428200      -0.00580119
Ti       3.64033027       9.33851979      15.34118493      -0.00040937       0.00088139      -0.00480403
Ti       2.74042559       6.73048314      16.05731743       0.00484335      -0.00235482      -0.00030726
Ti       0.19343176       1.86727559      16.06269354       0.00532963      -0.00284364      -0.00319317
Ti       1.02870542       8.90635060      16.73167896      -0.00193958       0.00010476      -0.00180129
Ti       3.56585209       4.03381025      16.74506681      -0.00281424      -0.00185242       0.00511867
Ti       0.21535371       6.18501420      17.39866247      -0.00215597      -0.00027713       0.01447107
Ti       2.74884231       1.31605777      17.40245347      -0.00579941       0.00155853       0.00619421
Ti       3.77271347       8.31868005      18.21239882       0.00557911      -0.00337251       0.00437141
Ti       1.21822781       3.45244749      18.22994232       0.00682945       0.00384230       0.00964517
Ti       5.04117620       0.90464792      18.88246711       0.00873721       0.00598182      -0.00346207
Ti       2.49478218       5.76311862      18.89391994       0.01044859      -0.00276412       0.00149471
Ti       1.22665712       8.22074556      19.40794369      -0.00191844      -0.00134695       0.00144594
Ti       3.75508996       3.36658532      19.43475375      -0.00115061       0.01099350      -0.00043593
Ti       4.97681113       5.96818271      20.13718279      -0.00816492      -0.00208845       0.00210773
Ti       2.42898703       1.09801259      20.14423090      -0.00816965       0.00567117       0.00167572
Ti       4.08816460       8.76465654      20.93407079      -0.00080587      -0.00125838       0.00127530
Ti       1.50826729       3.89334063      20.98183831       0.00081994       0.00295877      -0.01745638
Ti       4.80640209       1.80104025      21.54731778       0.00264528       0.00185137       0.00913404
Ti       2.26517262       6.65801498      21.57625101       0.00300562       0.00010327      -0.00373447
Ti       1.43201507       9.34552815      22.31252480       0.00471331       0.00128941       0.01210006
Ti       3.93820924       4.49774228      22.33334484       0.00290452      -0.00168377      -0.00179612
Ti       4.95453454       7.06382570      22.98669473      -0.01178125       0.00635826       0.00383942
Ti       2.37148444       2.21961254      23.00198348      -0.00112025      -0.00798908       0.00516875
V        1.39941465       4.83432124      23.57973903       0.00206910       0.00530161       0.01277218
Ti       3.97635961       9.71533018      23.61335377      -0.00548365       0.00214497       0.00500621
Ti       2.36246109       7.41068968      24.29214928       0.00747717       0.00921794       0.00696876
Ti       4.95065119       2.61088310      24.30145407      -0.00657743      -0.00438083       0.00163606
Ti       4.11908555       5.26259468      24.99856085      -0.00608653       0.00289662       0.01041791
Ti       1.53245314       0.40071823      25.02301863       0.00204756      -0.00236926      -0.00153020
Ti       2.29213923       3.15305697      25.63530899       0.00186359      -0.00285739       0.00608774
Ti       4.83743853       7.98837803      25.70602575      -0.00202726      -0.00016996      -0.00294112
Ti       1.48274404       5.77324506      26.44971436       0.00221330       0.00023088      -0.00314616
Ti       4.01719033       0.92361187      26.47571476      -0.00540007      -0.00446024      -0.01323138
Ti       2.31617285       8.43297287      27.14404642      -0.00061999       0.00331330      -0.01000689
Ti       4.83960307       3.57437816      27.15817964      -0.00250237       0.01186791      -0.00275003
Ti       3.96640048       6.21729138      27.71603361      -0.00050967      -0.00543070      -0.00320925
Ti       1.42653549       1.36086880      27.71108243       0.00763854      -0.00438794      -0.00861540
Ti       2.41663397       3.94870508      28.47342138       0.00329346       0.00400579      -0.00080126
Ti       4.97119107       8.82059099      28.47483676      -0.00274939       0.00035600      -0.00848111
Ti       1.66168557       6.53004304      29.07751398      -0.00211403      -0.01029808      -0.00235087
Ti       4.21668076       1.66402367      29.09722234      -0.00383443       0.00719159      -0.00119784
Ti       2.27602515       9.44971283      29.63700588      -0.00083518      -0.00005365      -0.00213133
Ti       4.81199235       4.58179658      29.65098246       0.00172747      -0.00112849      -0.01827933
