64
Lattice="5.088765 0.0 0.0 0.0 9.739025 0.0 0.0 0.0 38.303587" Properties=species:S:1:pos:R:3:forces:R:3 job_name=Segregation-1sol-addvac-T2-V-V-34-d-0.63 top_level=Segregation-1sol-addvac solute=V energy=-484.84239986 stress_kbar_3x3="_JSON [[-13.36049498, -1.33119154, -0.1933696], [-1.33119155, -13.99132298, -0.64455324], [-0.19336963, -0.64455325, -1.6968994]]" pbc="T T T"
Ti       2.81540734       9.47865041       8.65902653      -0.00334638       0.00353258      -0.00701560
Ti       0.27053829       4.61256674       8.66061424      -0.00032897       0.00158226      -0.00326505
Ti       0.88798341       1.70057389       9.19663017      -0.00182096       0.00417845       0.00864179
Ti       3.43257568       6.57065635       9.20105366      -0.00396327      -0.00235020       0.01463933
Ti       2.66906689       3.98584331       9.79517866       0.00371178       0.00604099       0.01054891
Ti       0.12472940       8.85343129       9.79487580       0.00787302       0.00077000       0.01267642
Ti       1.13245173       6.26767189      10.57081631       0.00814042       0.01131589       0.00837332
Ti       3.67474268       1.39963178      10.56624555       0.00707808       0.01478281       0.00793942
Ti       0.26336231       3.59243628      11.15716723      -0.00522110      -0.00364227       0.00610943
Ti       2.80725107       8.46214060      11.15803393      -0.00618722      -0.01124262       0.01022326
Ti       1.07335086       0.92358883      11.81665066      -0.00490511      -0.00186212       0.00445676
Ti       3.61915823       5.79110677      11.82087048      -0.00504125       0.00181307       0.00170728
Ti       2.75754727       3.15892089      12.60935011       0.00264599       0.00724895       0.00560128
Ti       0.21726519       8.02459824      12.60619718       0.00109108       0.00597485       0.00431742
Ti       3.58141121       0.49299299      13.29329816       0.00751728       0.00229593       0.00666249
Ti       1.03444186       5.36028509      13.29973926       0.00666178       0.00195052      -0.00201811
Ti       2.77571027       7.53675207      13.93995249       0.00074897      -0.00060442       0.00075436
Ti       0.22778182       2.67072846      13.93709879      -0.00300109      -0.00227500       0.00678408
Ti       3.64075237       4.90349284      14.70549834      -0.00035005      -0.00130605       0.00313542
Ti       1.10116152       0.03636290      14.69065837      -0.00452807       0.00055056       0.00368831
Ti       0.22231722       7.12300671      15.39023201       0.00074856       0.00521855       0.00668129
Ti       2.76007594       2.26181979      15.38535104       0.00533307       0.00166998       0.00307285
Ti       1.10330043       4.45646776      16.02207586      -0.00287324      -0.00008215       0.00463182
Ti       3.65687002       9.33773274      16.00436629       0.00235202       0.00353685       0.00233184
Ti       0.15941543       1.88556706      16.73481272      -0.00294317       0.00156828      -0.00789968
Ti       2.71372453       6.74895987      16.74816067      -0.00152142       0.00148758       0.00017395
Ti       1.01293749       8.96090386      17.44086048      -0.00049712      -0.00199866      -0.00066655
Ti       3.55626242       4.08456487      17.48377011      -0.00005450      -0.00011743      -0.00017406
Ti       2.82651354       1.30548047      18.06174586       0.00236610       0.00316969      -0.00146499
Ti       0.30535327       6.16555088      18.06875439       0.00710668       0.00480125      -0.00020156
Ti       3.76913799       8.26548849      18.91460758      -0.00058545      -0.00080553       0.00009655
Ti       1.14866306       3.42891275      18.93255522       0.00373652       0.00708151       0.00507752
Ti       5.08373331       0.80528737      19.65206362       0.00162682      -0.00482950       0.00717704
Ti       2.55688438       5.65336027      19.70454858      -0.00684259      -0.00342012       0.00564355
V        3.78009034       3.15966702      19.98166590      -0.00848643       0.00271866       0.01266402
Ti       1.22977479       8.08281245      20.05458093       0.00360132      -0.00582472      -0.00017467
Ti       2.53282485       0.96477027      20.74647458       0.00467639       0.00237911       0.00870781
Ti       5.07760749       5.71073110      20.76892058       0.00648977      -0.00147660       0.00026583
Ti       1.74869456       3.67513508      21.56308380       0.00733129      -0.00276340      -0.01002928
Ti       4.15963175       8.60511122      21.60137890       0.00115135      -0.00043045      -0.00412527
Ti       4.70846683       1.90190350      22.22201512      -0.00685972      -0.00211480      -0.00812400
Ti       2.18116488       6.71534777      22.28559582      -0.00065244      -0.00384267      -0.01178910
Ti       1.39979310       9.42234343      22.95202139      -0.00236563       0.00054658      -0.01134481
Ti       3.97374518       4.52794995      22.98845486      -0.00436534      -0.00206659      -0.01414451
Ti       4.92930285       7.11596624      23.71833121      -0.00322396       0.00273797      -0.00336466
Ti       2.38046602       2.24100127      23.74332585      -0.00083203       0.00010194      -0.00589613
Ti       1.42697335       4.84798924      24.26952309      -0.00198543      -0.00536681      -0.00709912
Ti       3.97724850       9.72275358      24.26469919      -0.00094929      -0.00446493      -0.00650608
Ti       2.33038256       7.50526164      24.97322495       0.00619269      -0.00173315       0.00242840
Ti       4.87979997       2.62558884      24.97891689       0.00520803      -0.00422492      -0.00051790
Ti       4.03783983       5.28770762      25.71063971       0.00149337      -0.00011733       0.00247598
Ti       1.49940577       0.41546346      25.70995514       0.00127371       0.00180646       0.00124705
Ti       4.80966076       8.01477184      26.46100658      -0.00526656      -0.00137038       0.00624935
Ti       2.26149080       3.15499090      26.46193828      -0.00537817      -0.00353617      -0.00235049
Ti       1.49726067       5.82441699      27.13404831      -0.00718355      -0.00861084      -0.00800082
Ti       4.04080907       0.95517442      27.13115247      -0.00646363      -0.01617179      -0.00603858
Ti       2.36442043       8.49154131      27.76404666       0.00814500       0.00500340      -0.00537519
Ti       4.90458785       3.62099365      27.76728953       0.00564583       0.00708675      -0.01191952
Ti       1.36647152       1.34284058      28.48580203       0.00199043      -0.00652873      -0.01235211
Ti       3.91071580       6.21175524      28.48879510       0.00394684       0.00481500      -0.01197747
Ti       4.70036407       8.79552866      29.08338607      -0.00738618      -0.00642222      -0.01661569
Ti       2.15336077       3.92570667      29.08650023      -0.00307294      -0.00309578      -0.00702422
Ti       4.07261241       1.94297376      29.64799091      -0.00396532      -0.00343587       0.00382077
Ti       1.52751753       6.81695676      29.64727452      -0.00343662       0.00036782      -0.00152969
