52
Lattice="5.088765 0.0 0.0 0.0 5.495746 0.0 0.0 0.0 48.722931" Properties=species:S:1:pos:R:3:forces:R:3 job_name=Segregation-1sol-addvac-C1-V-V-27-d-1.38 top_level=Segregation-1sol-addvac solute=V energy=-397.32964635 stress_kbar_3x3="_JSON [[-21.79118539, -0.00117351, 0.10110045], [-0.0011735, -9.33788757, 0.81673582], [0.10110048, 0.81673578, -2.87822502]]" pbc="T T T"
Ti       2.53362275       0.17285679      39.57719428      -0.00185365       0.00490450      -0.00468881
Ti       0.72891396       1.46564600       9.08343097       0.00186828      -0.00716040       0.01704743
Ti       0.10775855       4.21351780       9.08300693      -0.00318073      -0.00753838       0.01728079
Ti       2.48741852       3.08426714      10.25918384      -0.00336238      -0.00596676       0.00667425
Ti       3.43820514       0.33634182      10.25940889       0.00223982      -0.00596527       0.00690137
Ti       0.87046726       0.20532531      11.34544313       0.00092132      -0.00579010      -0.00390195
Ti       5.05475628       2.95294701      11.34564687      -0.00136323      -0.00485112      -0.00490273
Ti       3.05165452       1.57691338      12.64499848      -0.00288239      -0.00485904       0.00912353
Ti       2.87274041       4.32439118      12.64454249       0.00097516      -0.00318867       0.00899389
Ti       5.08840854       5.44810107      13.93201804      -0.00093357      -0.00061657       0.01241128
Ti       0.83537748       2.70036791      13.93264567       0.00018757      -0.00211033       0.01179150
Ti       3.42827210       3.21066963      15.09896795      -0.00105844       0.00221143       0.01436439
Ti       2.49496028       0.46276595      15.09980004      -0.00006929       0.00114881       0.01284649
Ti       0.76129444       4.09708679      16.37261926       0.00192889       0.00054341       0.00527828
Ti       0.07094930       1.35011419      16.37226797      -0.00391711      -0.00056065       0.00674619
Ti       2.59075715       2.19418009      17.61461121       0.00049326       0.00158863       0.00173973
Ti       3.33150667       4.94145462      17.61428346      -0.00019224      -0.00066744       0.00162857
Ti       0.88828397       0.24804045      18.85575949      -0.00037682      -0.00140123       0.00359716
Ti       5.03267247       2.99886144      18.85772391      -0.00047030       0.00304800       0.00481500
Ti       3.34535501       0.85592744      20.04854958       0.00077843      -0.00016326       0.00553287
Ti       2.57279007       3.60381167      20.05359874      -0.00243388       0.00063647       0.00042006
Ti       0.29773976       4.71476168      21.34339892      -0.00000937      -0.00789573       0.01057886
Ti       0.52733648       1.96439712      21.33886567       0.00271583       0.00827640       0.00630508
Ti       2.47500016       0.52665637      22.67374563      -0.00024744       0.00088918      -0.00002769
Ti       3.44742497       3.22503294      22.67342712       0.00180822       0.00126003       0.00821321
Ti       0.90770343       3.29852853      23.71360791       0.00042197      -0.00119968      -0.01624373
Ti       5.02174794       0.61876253      23.71639730       0.00280507       0.00345284       0.00231354
V        2.96610574       1.92373143      24.98381354       0.00066239       0.00124845      -0.00249515
Ti       2.97167910       4.66687414      24.98253356       0.00290024      -0.00199711      -0.00299235
Ti       5.02871008       3.27923950      26.25760503      -0.00793269       0.00038639       0.00657596
Ti       0.91722788       0.60067666      26.25393872       0.00321830       0.00249142      -0.00899197
Ti       3.46610143       0.51483551      27.29396173      -0.00538042       0.00022056      -0.00409162
Ti       2.48634974       3.21328466      27.29219027       0.00305194      -0.00080211      -0.00758168
Ti       0.54363097       4.67903320      28.62602092       0.00016735      -0.00667367      -0.00285520
Ti       0.32666836       1.92989341      28.62931636       0.00147723       0.00812588       0.00077250
Ti       2.58277038       0.79839386      29.91440383      -0.00193084       0.00221008      -0.00319976
Ti       3.37240681       3.54624776      29.90830337       0.00284254       0.00102829       0.00135556
Ti       5.05267918       0.21006642      31.10968055      -0.00136169       0.00247281      -0.00550794
Ti       0.89915271       2.96174805      31.10788531       0.00078147       0.00658985      -0.00763634
Ti       3.34145728       2.11077040      32.35652393       0.00101775       0.00158231      -0.01499696
Ti       2.61032851       4.85756373      32.35700473      -0.00010208      -0.00140081      -0.01447637
Ti       0.83533207       1.25870984      33.60387077      -0.00213015      -0.00073247      -0.01021616
Ti       0.02939726       4.00584188      33.60467969       0.00249627      -0.00139414      -0.01076134
Ti       2.53412823       3.26984172      34.81366474      -0.00096352       0.00583479       0.00323892
Ti       3.41758774       0.52213801      34.81234215       0.00232088       0.00510711       0.00269449
Ti       0.80977542       5.22794964      36.05783195      -0.00121529       0.00220555      -0.00152900
Ti       0.05271922       2.47977852      36.05755614       0.00274080       0.00202769      -0.00117357
Ti       2.55209701       1.59504250      37.30990825      -0.00145674      -0.00247996      -0.01184179
Ti       3.40017415       4.34282586      37.30989351       0.00103400      -0.00122130      -0.01169773
Ti       0.99109613       3.64921232      38.51033539      -0.00214445       0.00119543      -0.01668882
Ti       4.96078978       0.90104286      38.51075733       0.00263820       0.00134485      -0.01622763
Ti       3.41806164       2.92093860      39.57694304       0.00247552       0.00460503      -0.00451463
