52
Lattice="5.088765 0.0 0.0 0.0 5.495746 0.0 0.0 0.0 48.722931" Properties=species:S:1:pos:R:3:forces:R:3 job_name=Segregation-1sol-addvac-C1-V-V-32-d-3.83 top_level=Segregation-1sol-addvac solute=V energy=-396.77639932 stress_kbar_3x3="_JSON [[-23.83144982, -0.56845, 0.82592372], [-0.56844999, -11.97964594, 1.40421594], [0.82592373, 1.40421597, -1.91300791]]" pbc="T T T"
Ti       0.04779811       4.17764206       9.03504326      -0.00073684      -0.00162378      -0.00192561
Ti       0.68469856       1.42767860       9.03481288      -0.00279897      -0.00186242      -0.00079601
Ti       2.42738309       3.05420553      10.21377108       0.00767339      -0.00070343       0.00280801
Ti       3.39230179       0.30638797      10.21711763      -0.00970248       0.00066598       0.00303536
Ti       4.99368689       2.91854297      11.29193692      -0.01035643      -0.00564562       0.01613351
Ti       0.82243248       0.17128588      11.29506994       0.00601054      -0.00319756       0.01286582
Ti       2.81255307       4.29041998      12.59628033      -0.00278224      -0.00309226       0.00674704
Ti       2.99758390       1.54739452      12.59535570       0.00128996      -0.00047952       0.00616218
Ti       5.02814817       5.41270189      13.87792278      -0.00570645      -0.00158103       0.00165166
Ti       0.76779281       2.66729557      13.87814269       0.00168767      -0.00151005      -0.00030890
Ti       2.43209215       0.45233941      15.05864596       0.00056096       0.00019892      -0.00664741
Ti       3.35838322       3.20461205      15.07518357      -0.00167413      -0.00013240      -0.00656006
Ti       5.06827517       1.31483097      16.32493734      -0.00199731      -0.00105705      -0.00108895
Ti       0.72893323       4.06807827      16.33239786      -0.00036915      -0.00045640      -0.00119904
Ti       3.28005932       4.88600082      17.56251212      -0.00212863      -0.00212647       0.00122492
Ti       2.48861778       2.12478887      17.57637873       0.00093385      -0.00185815       0.00176383
Ti       5.00541669       2.88600475      18.78839468      -0.00198025      -0.00087442       0.00033498
Ti       0.73575207       0.14339665      18.81418575       0.00024163      -0.00108090      -0.00037830
Ti       2.49536850       3.67194614      20.01880572      -0.00024993      -0.00041922      -0.00112964
Ti       3.27983009       0.93342390      20.05228395      -0.00248353      -0.00099433      -0.00164083
Ti       0.71733395       1.71317522      21.23973874       0.00069405      -0.00103468      -0.00468328
Ti       5.04021480       4.43740983      21.26925856      -0.00125225      -0.00051929      -0.00598182
Ti       2.44354315       5.22884986      22.47799849      -0.00007107       0.00087134      -0.00662111
Ti       3.23821480       2.49677578      22.51601345      -0.00457817      -0.00065836      -0.00772930
Ti       0.00247453       0.34277844      23.70424183       0.00194932      -0.00158708      -0.00769168
Ti       0.66837625       3.13365120      23.77283705       0.00351647      -0.00046130      -0.00751973
Ti       2.61710785       4.46965681      25.15947962       0.00184703      -0.00192325      -0.00363038
Ti       3.53854372       1.76892968      25.22522540      -0.00466036       0.00332809       0.00108771
Ti       1.02434190       1.79303320      26.23477739      -0.00076805       0.00096838       0.00788350
Ti       0.06811679       4.45369766      26.25291451       0.00346750      -0.00082584       0.01164089
Ti       3.05972064       0.32226953      27.48852439       0.00023909       0.00124581       0.01643958
V        3.07779411       3.08958583      27.49524480       0.00435986      -0.00115733       0.01434928
Ti       0.01584525       1.75735481      28.75839048      -0.00379033       0.00403914      -0.00890068
Ti       1.01944821       4.43724685      28.77097534       0.00480204      -0.00138774      -0.01060432
Ti       2.55575343       1.67404338      29.79787061       0.00833455       0.00096116      -0.01164558
Ti       3.55235020       4.36523834      29.79705144      -0.00698712      -0.00221502      -0.01359428
Ti       0.39330875       0.34220008      31.11931313      -0.00042949       0.00086528      -0.00419916
Ti       0.60676016       3.08488557      31.13346006       0.00284672      -0.00395821      -0.00577638
Ti       2.66650459       4.70341799      32.40766048       0.00275933       0.00153563       0.00705618
Ti       3.41720608       1.95504076      32.41967877      -0.00088504       0.00051011       0.00803798
Ti       0.96176043       1.30169361      33.62830449       0.00108884       0.00657073       0.01476042
Ti       0.02146586       4.05600570      33.62891823       0.00077890       0.00587463       0.01499188
Ti       2.62511332       3.28477635      34.84229448      -0.00233750       0.00160143       0.00651325
Ti       3.43961244       0.53383799      34.84775579       0.00381719       0.00308144       0.00666121
Ti       0.12474447       2.47839762      36.09010276       0.00683082      -0.00070763      -0.00403714
Ti       0.84787697       5.22473204      36.09822456      -0.00390289       0.00071206      -0.00349563
Ti       2.60387767       1.60680346      37.34396559      -0.00854377      -0.00026955      -0.01324748
Ti       3.45155445       4.35077147      37.34656925       0.01072894      -0.00019626      -0.01188615
Ti       1.02804324       3.66182603      38.53208691      -0.00809217       0.00526788       0.00149484
Ti       5.02077998       0.91463345      38.52954051       0.01066963       0.00457245       0.00142260
Ti       2.58450642       0.18221348      39.61146417       0.00195198       0.00080523      -0.00658479
Ti       3.46133725       2.92925553      39.61724326       0.00018430       0.00192083      -0.00556300
