52
Lattice="5.088765 0.0 0.0 0.0 5.495746 0.0 0.0 0.0 48.722931" Properties=species:S:1:pos:R:3:forces:R:3 job_name=Segregation-1sol-addvac-C1-Al-Al-28-d-1.38 top_level=Segregation-1sol-addvac solute=Al energy=-392.7756041 stress_kbar_3x3="_JSON [[-10.98628768, 0.8801732, 2.11301013], [0.88017319, -12.3135377, -0.33858112], [2.11301014, -0.33858113, -0.9486546]]" pbc="T T T"
Ti       2.03839495       0.71506971       8.95862816      -0.00960423      -0.00466288       0.00355682
Ti       0.19000610       4.40146747       9.44365658      -0.00117011       0.00475535       0.00229061
Ti       4.65925807       1.66572241       9.85326908      -0.00040707       0.00134568      -0.00320808
Ti       2.19897304       2.67106707      10.55257234      -0.00364570      -0.00172925      -0.00883533
Ti       3.37776361       5.06818395      11.07635493      -0.00142688      -0.00201645      -0.01207492
Ti       0.88236087       0.41250384      11.71874444      -0.00701609      -0.00125245      -0.00674843
Ti       0.10285731       3.17600522      12.12160161      -0.00201210       0.00271969      -0.00237534
Ti       3.19434390       1.42703062      13.12744634      -0.00093425       0.00212627       0.00935365
Ti       2.45981705       4.17988262      13.44170317      -0.00521105       0.00097787       0.01421765
Ti       5.01181552       4.96667599      14.35701807      -0.00275975      -0.00056440       0.01592093
Ti       0.89228867       2.12517576      14.58540985      -0.00264118       0.00209955       0.01643931
Ti       3.46890958       2.88626886      15.68027516      -0.00137526       0.00149533       0.01188865
Ti       2.66367521       0.16747236      15.75476748      -0.00102675      -0.00266831       0.01312031
Ti       0.82229291       3.74806052      16.88421050      -0.00391530       0.00350488      -0.00050058
Ti       0.06627696       0.99249566      17.01823958      -0.00123319      -0.00137846      -0.00058118
Ti       2.59713194       1.80315921      18.17640914      -0.00251481      -0.00081739      -0.00721592
Ti       3.38326354       4.51597599      18.21957470      -0.00171358       0.00119671      -0.00812046
Ti       0.95577647       5.34769474      19.43398945      -0.00244624       0.00137475      -0.00721452
Ti       0.01129552       2.62033702      19.41650645      -0.00224750       0.00038945      -0.00697004
Ti       3.42715031       0.44270738      20.59565548      -0.00150345      -0.00088265       0.00221596
Ti       2.62393040       3.17561868      20.67004621       0.00076979      -0.00149877       0.00482012
Ti       0.39746183       4.35632231      21.94065296      -0.00346649       0.00104204       0.00520998
Ti       0.53137475       1.58231486      21.89742074      -0.00243118      -0.00055810       0.00467430
Ti       3.53543310       3.03622923      23.28062215       0.00062127       0.00043154       0.00318135
Ti       2.54975760       0.31659203      23.22963396      -0.00306738       0.00152551       0.00362493
Ti       1.00454793       2.86954146      24.23485267       0.00292477      -0.00060006       0.00022155
Ti       0.01988937       0.14085035      24.35878451      -0.00248219       0.00036290      -0.00324673
Ti       3.18557053       1.74407536      25.63179848      -0.00376845       0.00014779      -0.00099701
Al       2.69730175       4.49034503      25.62986999      -0.00384500      -0.00045713      -0.00584830
Ti       0.05980449       3.54284198      26.79439577      -0.00053687      -0.00046231      -0.00734980
Ti       0.96609211       0.81133161      26.95637498       0.00083023       0.00068801      -0.00390654
Ti       3.49424815       0.19820636      28.00742504      -0.00468038       0.00020386      -0.00024903
Ti       2.50726533       2.96645541      28.06142027      -0.00021063       0.00012346       0.00177083
Ti       0.76147996       4.87350993      29.31865696      -0.00113961       0.00114139       0.00677535
Ti       5.05146431       2.13809010      29.29684872      -0.00215399      -0.00021575       0.00604664
Ti       2.52998477       1.31693041      30.44532866      -0.00093314       0.00043079       0.00054238
Ti       3.36554350       4.09193433      30.57254889      -0.00001660       0.00097489      -0.00055364
Ti       0.82088884       3.31093266      31.71175280       0.00228883       0.00153664      -0.01004044
Ti       5.08634650       0.59974468      31.81656271       0.00058790       0.00338254      -0.00814624
Ti       3.26253109       2.48916564      32.94543058       0.00119192       0.00039480      -0.01651427
Ti       2.44783558       5.23144518      33.00952597       0.00454488       0.00082604      -0.01268611
Ti       5.01363835       4.46027112      34.12520141       0.00179296       0.00257951      -0.01231483
Ti       0.88311124       1.79056426      34.35800341       0.00247309      -0.00231796      -0.01205606
Ti       3.43411568       1.01058791      35.27951074       0.00302817      -0.00398153      -0.00669316
Ti       2.68404548       3.76017826      35.56050948       0.00456203       0.00331452       0.00189233
Ti       0.70266075       0.02123972      36.60019229       0.00595905       0.00068950       0.00531983
Ti       4.98836285       2.76266502      36.97875900       0.01267696      -0.00089392       0.00724523
Ti       2.48586784       1.94383651      37.63729536       0.00236709      -0.00399231       0.01746644
Ti       3.65678313       5.02683447      38.14613319       0.00817315      -0.00404294       0.00283658
Ti       1.19766247       4.01921403      38.87136800       0.01256071       0.00010454      -0.00027722
Ti       0.57184076       1.26704281      39.25986985       0.01516443      -0.00559675       0.00047852
Ti       3.82027220       3.07529072      39.75337780       0.00101918      -0.00129607       0.00361395
