100
Lattice="4.4265 -2.555641 0.0 3.767997 6.526363 -0.031456 0.0 0.0 61.781652" Properties=species:S:1:pos:R:3:forces:R:3 job_name=Segregation-1sol-addvac-CSL13-V-V-59-d-4.19 top_level=Segregation-1sol-addvac solute=V energy=-765.37229002 stress_kbar_3x3="_JSON [[-26.80836351, -2.74247881, -0.40414146], [-2.7424788, -31.54634394, 0.874473], [-0.40414144, 0.87447297, -2.36148547]]" pbc="T T T"
Ti       2.66064327      -0.54773794       8.79189900      -0.00339062      -0.00117912      -0.00670381
Ti       5.98253383       1.88662656       8.77653032       0.00069025      -0.00517459      -0.00851278
Ti       4.40078539       4.15753924       9.75097900      -0.00631132       0.00137227      -0.00270182
Ti       5.41916669      -0.78167843       9.76619871       0.00428575      -0.00635577      -0.00317453
Ti       3.84021404       1.43393912      10.41680201      -0.01022703      -0.00326635       0.01442019
Ti       7.10950537       3.89829218      10.40135889       0.00310977      -0.00683965       0.01411645
Ti       1.81705284      -0.37818695      11.34633740      -0.00008929      -0.00249473       0.01296448
Ti       6.55146535       1.23919013      11.33030690      -0.00156053      -0.00263691       0.01648098
Ti       4.99248623       3.50761294      12.34024172      -0.00306160      -0.00511237       0.01101417
Ti       4.56269200      -0.59452604      12.35662435      -0.00261285      -0.00433528       0.01057168
Ti       3.34914533       5.75970699      13.13237148      -0.00011887      -0.00337241      -0.00324885
Ti       2.90780879       1.66408955      13.14860413      -0.00234800      -0.00175357      -0.00406160
Ti       2.33081365      -0.99036931      14.12127693       0.00177561      -0.00598158      -0.00261730
Ti       5.76681846       1.37619488      14.10622094      -0.00534881      -0.00192731      -0.00282682
Ti       0.78534431       1.24522463      15.02465688      -0.00735667      -0.00096054      -0.00449823
Ti       4.05097480       3.71262926      15.00887046       0.00303496      -0.00667524      -0.00470204
Ti       3.51577590       0.98338583      15.81418560       0.00044864      -0.00154924      -0.00204921
Ti       6.88404739       3.38960383      15.79890091      -0.00106384      -0.00071637      -0.00254843
Ti       1.51487718      -0.84094876      16.87553432      -0.00527690      -0.00350724       0.00415451
Ti       6.30796521       0.74316673      16.85908697      -0.00019336      -0.00630692       0.00422101
Ti       4.22199380      -1.07192642      17.66284269       0.00128562      -0.00166983       0.00267702
Ti       4.75256164       2.96971613      17.64651150      -0.00265697       0.00034046       0.00309883
Ti       7.42416046       2.76223340      18.50388276       0.00211460      -0.00190238       0.00267346
Ti       2.70529498       1.13536713      18.52007057      -0.00246663       0.00031969       0.00222275
Ti       5.87980815       5.05804796      19.63467686      -0.00335984      -0.00438832       0.00243451
Ti       5.46998751       0.94403528      19.65103389      -0.00196947      -0.00541167       0.00228750
Ti       0.50922788       0.75458257      20.26154284       0.00104859       0.00088982       0.00218854
Ti       3.77005678       3.22490213      20.24689045       0.00138653       0.00131960       0.00166140
Ti       6.81765570       2.87548343      21.23919414      -0.00037745      -0.00182081       0.00708337
Ti       3.11125293       0.66409028      21.25412017      -0.00140378      -0.00170311       0.00767962
Ti       5.04450495       5.36798773      22.46961917       0.00041081       0.00107417       0.00034365
Ti       1.73304204       2.92843645      22.48438021       0.00054279       0.00044455       0.00079723
Ti       4.02812152      -1.47411688      22.86624414      -0.00164894       0.00143210      -0.00259426
Ti       4.50995087       2.59785448      22.85068727       0.00196233      -0.00132465      -0.00312124
Ti       7.05475909       2.62397817      24.00770135       0.00111799      -0.00174758      -0.00712910
Ti       2.77973724       0.74097283      24.02376780      -0.00018933      -0.00149566      -0.00681223
Ti       5.33499080       0.77685612      25.31271084       0.00208610      -0.00003964       0.00391934
Ti       5.80999276       4.85304364      25.29820547      -0.00044774       0.00145702       0.00393796
Ti       0.37316358       0.55493948      25.51180287      -0.00157476       0.00024046       0.00360498
Ti       3.67250512       3.00087785      25.49623158       0.00269763      -0.00098504       0.00385668
Ti       6.91320000       2.65513446      26.76706309       0.00345303      -0.00010579       0.01238234
Ti       2.88251344       0.63210007      26.78344687       0.00089701       0.00090938       0.01307379
Ti       1.69459128       2.84287322      28.12696444       0.00191282       0.00224081      -0.00025803
Ti       4.99962726       5.28908522      28.11089081       0.00010868       0.00463894       0.00027439
Ti       4.45166110       2.51853430      28.17489565       0.00337888      -0.00304681       0.00089900
Ti       3.99545354      -1.57276193      28.19201564       0.00177609       0.00019235      -0.00054266
Ti       6.94021470       2.61163412      29.51634455       0.00305907       0.00064991      -0.00351538
Ti       2.84572305       0.63264581      29.53305610       0.00263966       0.00150084      -0.00443285
Ti       5.79416022       4.81297593      30.91356440       0.00252154       0.00493747       0.01101979
Ti       5.32677965       0.72903333      30.94458643       0.00637396       0.00049896       0.01074150
Ti       3.66853362       2.95408051      30.86249776       0.00408824       0.00211638       0.00716803
Ti       0.35729586       0.51039174      30.87730037       0.00399173       0.00447989       0.00664996
Ti       2.80972336       0.64435672      32.28551199       0.00394039       0.00278709       0.00285158
Ti       6.98913632       2.58531257      32.26739897       0.00421463       0.00177051       0.00792844
Ti       4.52134425       2.48524570      33.52734929       0.01296316      -0.00142050      -0.00710500
Ti       3.98236260      -1.58632977      33.54974389       0.00558343       0.00479361      -0.00244328
Ti       4.99236714       5.25795668      33.71595929       0.00206980       0.00619818      -0.00925713
Ti       1.74207603       2.84234099      33.77603579      -0.00044015       0.01229504      -0.00617521
V        6.87399946       2.68015331      34.97885203       0.00459932       0.00299816      -0.00286007
Ti       3.00685636       0.57874505      35.06688083       0.01110310       0.00193292      -0.00434608
Ti       3.72564071       3.13484057      36.05601855       0.01011494       0.01612773      -0.00293722
Ti       0.40475789       0.49783080      36.07319273       0.00025453       0.00420491      -0.00634990
Ti       5.87026280       4.84159122      36.49878285       0.00504106       0.00016330       0.00313975
Ti       5.42504485       0.80130586      36.54799552       0.00444386       0.00424602       0.00544275
Ti       2.54423055       0.98492667      37.78182794      -0.00113828       0.01134179       0.00790102
Ti       7.25595014       2.64365865      37.75478034       0.00715492       0.00562966       0.00232559
Ti       4.13728838      -1.17528051      38.57864463       0.00548039       0.01466623      -0.00267705
Ti       4.58333502       2.77758364      38.63490673       0.00279311       0.00786824      -0.00117093
Ti       5.18330807       5.47430455      39.36957395       0.00545469       0.00207567      -0.00343809
Ti       6.18004737       0.60707675      39.46152192       0.00788134       0.00775896       0.00000485
Ti       3.41835875       0.79359067      40.43446602      -0.00138874       0.00675329      -0.00598929
Ti       6.70060384       3.29148279      40.42222282       0.00152199       0.00809638      -0.00465633
Ti       3.99368405       3.58990258      41.22412785       0.00338689       0.00710060      -0.00406627
Ti       0.65162471       1.11686391      41.20778842       0.00049997       0.00898832      -0.00184094
Ti       5.63270897       1.23460795      42.33654059      -0.00198821      -0.00080498       0.00418910
Ti       2.21443474      -1.10445498      42.36522663      -0.00109562       0.00326557       0.00308355
Ti       2.79581025       1.60316243      42.98213910      -0.00272024       0.00514284      -0.00581475
Ti       3.26657018       5.64559704      42.98832870       0.00109443      -0.00169616      -0.00620527
Ti       4.69078041       3.45369016      43.91956781      -0.00699495       0.00606640      -0.00207611
Ti       4.62986907      -0.86657131      43.92924320       0.00196364       0.00002226      -0.00493755
Ti       2.04736764       3.49037454      45.25941744      -0.00270508      -0.00340711      -0.00514344
Ti       1.54338112      -0.57324261      45.27913583      -0.00430653      -0.00337812      -0.00506491
Ti       3.73180551       1.26842680      45.51545751      -0.00604179      -0.00030639      -0.00139601
Ti       6.98032280       3.75538849      45.51549010      -0.00016154      -0.00106591      -0.00215072
Ti       4.50585776       3.65980002      46.73926677      -0.00212162      -0.00407994      -0.00067318
Ti       4.89490512      -0.90931390      46.75730149      -0.00617192      -0.00006220      -0.00035042
Ti       2.40902682      -1.01962525      48.16963757       0.00131253      -0.00389092       0.00092584
Ti       5.66200476       1.45346641      48.15268285      -0.00621252       0.00011960       0.00130722
Ti       2.91949227       1.79069889      48.06864328       0.00064741      -0.00718832      -0.00509216
Ti       3.41459268       5.85562581      48.05684165      -0.01053801      -0.00238645      -0.00322780
Ti       4.41509639       3.68647532      49.54457788       0.00020246      -0.00988685      -0.00606245
Ti       4.97205566      -0.98444953      49.56035006      -0.01040940      -0.00372354      -0.00699081
Ti       2.05420517       3.44940051      51.21705817      -0.00568915      -0.00317312      -0.00678984
Ti       1.52086314      -0.59548595      51.23268192       0.00073153      -0.00356525      -0.00512363
Ti       3.62762501       1.21976424      50.65564561      -0.00622259      -0.00734527      -0.00783875
Ti       6.99810231       3.62623089      50.64076366      -0.00639215      -0.00534973      -0.01256666
Ti       4.75472680       3.26326943      52.18927947      -0.00197842      -0.01328437       0.00081446
Ti       4.43966743      -0.90204528      52.20484627      -0.01071048      -0.00713904       0.00155168
Ti       3.26383046       5.39886294      53.05436612      -0.00983668       0.00128919      -0.00447956
Ti       2.60587238       1.42711998      53.07080964       0.00366648      -0.00581689      -0.00873699
