64
Lattice="5.088765 0.0 0.0 0.0 9.739025 0.0 0.0 0.0 38.303587" Properties=species:S:1:pos:R:3:forces:R:3 job_name=Segregation-1sol-addvac-T2-Al-Al-46-d-4.86 top_level=Segregation-1sol-addvac solute=Al energy=-480.6492248 stress_kbar_3x3="_JSON [[-12.10487938, 3.54971729, 0.04434156], [3.54971729, -12.16730962, 1.39204876], [0.0443416, 1.3920488, -0.89708271]]" pbc="T T T"
Ti       2.80146169       9.44636439       8.64840758       0.00160442      -0.01771623       0.00022094
Ti       0.25773294       4.57782539       8.64784479       0.00166412      -0.01459655       0.00168088
Ti       3.41992630       6.53839433       9.20817018      -0.00368608      -0.00644796       0.00322177
Ti       0.87478431       1.66964435       9.20627678      -0.00465400      -0.00535767       0.00553630
Ti       2.65019756       3.95891167       9.80645374       0.00225397      -0.00344565       0.01359010
Ti       0.10589645       8.82829730       9.80473762       0.00385662      -0.00545142       0.01543050
Ti       1.10125034       6.23399391      10.55610233       0.00034465       0.00202100       0.00699910
Ti       3.64577165       1.36442884      10.55597713       0.00035214       0.00134146       0.00783394
Ti       0.23213677       3.56509112      11.14876924       0.00472438      -0.00628868       0.00844022
Ti       2.77696622       8.43372983      11.14906365       0.00424882      -0.00644430       0.01231596
Ti       3.58120046       5.76448105      11.83463730      -0.00296521      -0.00363942      -0.00295575
Ti       1.03715365       0.89644766      11.83247712      -0.00330064      -0.00551528      -0.00242657
Ti       0.22562008       7.96818048      12.59888694       0.00127239      -0.00542174       0.00104959
Ti       2.76937479       3.09840094      12.60102775       0.00101608      -0.00322657       0.00032549
Ti       1.02175524       5.27661429      13.28514900      -0.00499899      -0.00606005      -0.01203042
Ti       3.56596698       0.40904076      13.28533415      -0.00400008      -0.00914060      -0.01317544
Ti       0.18455313       2.60575654      13.98217596      -0.00142864      -0.00896387      -0.00991642
Ti       2.72956316       7.47692421      13.98198156      -0.00124235      -0.00994670      -0.01043282
Ti       1.07866048       9.71431141      14.68386093      -0.00668409      -0.00804898      -0.01057968
Ti       3.62132385       4.84135176      14.68570541      -0.00558120      -0.00415402      -0.00823272
Ti       0.17286170       7.06016449      15.32673295       0.00167206      -0.01029390      -0.00502579
Ti       2.71912587       2.18982321      15.33253810       0.00102401      -0.01050426      -0.00393878
Ti       1.08806783       4.45156290      16.02707545       0.00110142      -0.00481630       0.00035854
Ti       3.63718172       9.32686578      16.02906995       0.00085747      -0.00738221       0.00062607
Ti       2.80597228       6.63456500      16.74738840       0.00142926      -0.00580983       0.00463226
Ti       0.26032588       1.76712612      16.75931436       0.00114556      -0.00490206       0.00623876
Ti       0.99766219       8.72039275      17.37402955       0.00512840      -0.00011230       0.00690936
Ti       3.52653176       3.84749114      17.38919009       0.00525596       0.00194688       0.00263529
Ti       0.06824495       5.91348309      18.18897311       0.00029906       0.00273267       0.00148954
Ti       2.60750101       1.05037308      18.20680630       0.00081789       0.00015407       0.00606484
Ti       3.86355319       8.18645051      18.90581143      -0.00048614       0.00428170       0.00171170
Ti       1.30509970       3.32027894      18.93307274       0.00172406       0.00141761       0.00033032
Ti       2.57144851       5.75029557      19.40782852      -0.00106182       0.00405917      -0.00376672
Ti       0.04108616       0.87291597      19.40995771      -0.00020440       0.00046054      -0.00030153
Ti       1.34144443       8.31559196      20.11076658      -0.00154917       0.00430704      -0.00000479
Ti       3.85850030       3.45710622      20.11847496      -0.00133220       0.00167658      -0.00143613
Ti       4.83163089       6.20716680      20.91028840       0.00117612       0.00763515      -0.01295895
Ti       2.30033988       1.34353132      20.93119203       0.00412423       0.00209262      -0.00865650
Ti       4.07804005       8.94276927      21.57173050      -0.00203806       0.00743470      -0.01072473
Ti       1.50637524       4.09290927      21.60507472      -0.00240908       0.00561547      -0.00771913
Ti       4.90856149       1.85148659      22.25441314       0.00259864      -0.00019059      -0.00989870
Ti       2.41654079       6.75324140      22.29486392       0.00448464       0.00461387      -0.00539614
Ti       1.47867604       9.35070777      22.98077636       0.00310819       0.00532288      -0.00426521
Ti       4.06037911       4.47837203      22.99163224       0.00420956       0.00171004      -0.00256200
Ti       4.97314838       7.11986180      23.62049542       0.00076609       0.00565753      -0.00118365
Ti       2.40065351       2.28580547      23.65330816      -0.00508633       0.00522773      -0.00372764
Ti       4.02511324       0.01017409      24.32258664      -0.00158574       0.00289387       0.00920641
Al       1.52098498       4.91485139      24.33718600       0.00346496       0.00419241       0.00921618
Ti       2.34472697       7.56030787      25.01003720      -0.00007995       0.00560462       0.00512447
Ti       4.94817790       2.68067157      25.00504931      -0.00377999       0.00680981       0.00848229
Ti       4.08122712       5.33863898      25.68286542       0.00271926       0.00836235       0.00677113
Ti       1.53899458       0.51138182      25.68125019       0.00048092       0.00409281       0.00488944
Ti       2.34149741       3.14830060      26.46245181      -0.00669900       0.00140270       0.00436437
Ti       4.87722960       8.04392372      26.48035321      -0.00897144       0.00619914      -0.00087918
Ti       1.48255584       5.79029017      27.09808967       0.00134861       0.00666545      -0.00486455
Ti       4.07456857       0.94915442      27.15372129       0.00567699       0.01026308       0.00150300
Ti       2.36988151       8.48066575      27.73126566      -0.00190171       0.01702902      -0.00734679
Ti       4.92604117       3.60391903      27.78231159      -0.00096692       0.00925624      -0.00177506
Ti       1.40193424       1.33184133      28.48305025       0.00203593       0.00934377      -0.00412501
Ti       3.89333434       6.20065456      28.44899101       0.00463909       0.00318463      -0.00278112
Ti       2.16539249       3.91093918      29.08744020      -0.00306039       0.00083677      -0.00008679
Ti       4.67501798       8.77215128      29.09857650      -0.00016849       0.00967198      -0.00095797
Ti       1.50040047       6.78788402      29.60678791      -0.00110028      -0.00135513       0.01206312
Ti       4.08825004       1.93637156      29.65884929      -0.00160359      -0.00028506       0.00487079
