52
Lattice="4.6568 0.0 0.0 0.0 7.770572 0.0 0.0 0.0 41.044546" Properties=species:S:1:pos:R:3:forces:R:3 job_name=Segregation-1sol-addvac-CSL7-V-V-31-d-3.01 top_level=Segregation-1sol-addvac solute=V energy=-394.01957928 stress_kbar_3x3="_JSON [[-15.64283374, 0.07340511, 0.12025468], [0.07340512, -16.85269831, 0.41202985], [0.12025466, 0.41202987, -1.60319905]]" pbc="T T T"
Ti       2.31170456       7.24117924       8.72150886      -0.00066826       0.00446497      -0.01278785
Ti       4.64575835       5.34874384       8.95790342       0.00099429      -0.00350671      -0.00142817
Ti       2.31433024       2.25350280       9.47865587      -0.00034125      -0.00241930       0.00558957
Ti       4.64478350       0.54588592       9.82328829      -0.00028893      -0.00936655       0.00759472
Ti       2.31624946       4.96294757      10.44269077       0.00091676       0.00349657       0.01204572
Ti       4.64378342       3.37576046      10.76428663      -0.00002444      -0.00045696       0.00998745
Ti       2.31905816       0.09730151      11.37175069      -0.00032192      -0.00605040       0.00999883
Ti       4.64837723       6.13243656      11.60260587       0.00034162      -0.00756751       0.01354291
Ti       2.31603534       2.77296362      12.29776939       0.00044808       0.00381796       0.00471734
Ti       4.64651648       1.11071290      12.66144361       0.00047639      -0.00314305      -0.00050236
Ti       2.31522834       5.57252094      13.19789034       0.00067486      -0.00071884      -0.00066511
Ti       4.64353915       3.91123500      13.60045336      -0.00016972      -0.00047425      -0.00036971
Ti       2.31889975       0.57179814      14.24869719       0.00025593      -0.00259334      -0.00013852
Ti       4.65358016       6.65835799      14.47666380       0.00073419       0.00268395      -0.00001369
Ti       2.31147057       3.32444554      15.17839188      -0.00085975      -0.00236315       0.00935351
Ti       4.65181219       1.68943133      15.53055328      -0.00045658      -0.00268712       0.00453502
Ti       2.32999130       6.09080712      16.01633042       0.00079475       0.00043020       0.00801156
Ti       4.59621551       4.44153141      16.50439677      -0.00033110       0.00084577       0.01202077
Ti       2.33911940       1.09832827      17.12285578      -0.00041668      -0.00301990       0.00976138
Ti       0.01034624       7.20913873      17.25642549       0.00158099      -0.00398118       0.01092689
Ti       2.19012907       3.79547820      18.08965995      -0.00650499      -0.00628749       0.00647836
Ti       0.07726349       2.16399464      18.47644166      -0.00013402       0.00713253       0.00508237
Ti       2.26691316       6.58235847      18.72805620      -0.00625837       0.00335455       0.00633034
Ti       4.12652509       4.82322080      19.38254779       0.00921438       0.00707242       0.01619972
Ti       0.30527589       7.65243179      20.06381375      -0.00267275      -0.01050162       0.00393092
Ti       2.65188974       1.58136124      20.10260832      -0.00162061      -0.00063396       0.00425449
Ti       1.23181158       4.87006956      20.78694589      -0.01267464       0.00198468      -0.01196579
Ti       3.13800882       6.60121290      21.47518114       0.00517207       0.00480920       0.00146476
Ti       0.57562996       2.20329544      21.63171856      -0.00422138       0.00722277       0.00162476
Ti       3.11876201       3.73874559      22.08438286       0.00493815      -0.00414572      -0.00251271
Ti       0.74409957       7.33742451      22.88582033      -0.00144573      -0.00068153      -0.00145942
V        3.03368794       1.14401059      22.93253724      -0.00025843       0.00003993      -0.00841067
Ti       0.77566777       4.57403537      23.60149890      -0.00153130       0.00165198      -0.00753618
Ti       3.05759230       6.16372726      24.09218586       0.00007385       0.00356846      -0.00500910
Ti       0.74794834       1.76413287      24.48699163       0.00127767      -0.00292586      -0.00819330
Ti       3.09734864       3.37594849      24.89813247       0.00012518       0.00039255      -0.01022232
Ti       0.74120668       6.68762600      25.65011695      -0.00001797       0.00141673      -0.00415661
Ti       3.07268102       0.62320770      25.79222045       0.00057137      -0.00351092      -0.00975255
Ti       0.75551776       3.93020208      26.47938160       0.00093684       0.00493085       0.00031490
Ti       3.07738890       5.57209087      26.86939259       0.00086938       0.00210507      -0.00162013
Ti       0.74508636       1.18152243      27.43069727       0.00073472       0.00233774      -0.00130390
Ti       3.07560509       2.82791505      27.76841833       0.00100606       0.00128782      -0.00306999
Ti       0.74343627       6.10205382      28.44501656       0.00094959      -0.00042848      -0.00535090
Ti       3.07431960       0.02196701      28.69067081       0.00037568       0.00124655      -0.00867136
Ti       0.74374753       3.38138858      29.36987189       0.00042347       0.00029655      -0.00564987
Ti       3.07333147       5.09354646      29.70568379       0.00053341      -0.00495721      -0.00794336
Ti       0.74327296       0.62290179      30.25891571       0.00108224       0.00385200      -0.00950861
Ti       3.07184481       2.22047389      30.54808572       0.00102701       0.00376901      -0.01052614
Ti       0.74350647       5.52633806      31.25074767       0.00112345      -0.00226812      -0.00765312
Ti       3.07117070       7.26071249      31.52577169       0.00092921       0.00561589      -0.00593530
Ti       0.74265232       2.60697164      32.04478376       0.00082653      -0.00234819      -0.00882882
Ti       3.07157028       4.49122484      32.35525484       0.00181071       0.00721069      -0.00258072
