64
Lattice="5.088765 0.0 0.0 0.0 9.739025 0.0 0.0 0.0 38.303587" Properties=species:S:1:pos:R:3:forces:R:3 job_name=Segregation-1sol-addvac-T2-V-V-38-d-2.12 top_level=Segregation-1sol-addvac solute=V energy=-484.69993755 stress_kbar_3x3="_JSON [[-12.84683892, -2.76225485, 0.18067978], [-2.76225485, -12.91285316, -1.3853609], [0.18067976, -1.38536086, -1.77256429]]" pbc="T T T"
Ti       1.01185170       1.97392591       8.66470585      -0.00121492       0.00393474       0.00083352
Ti       3.56237292       6.83709853       8.67052945      -0.00000622       0.00285802      -0.00084736
Ti       2.93809663       3.94242345       9.22048293      -0.00158491       0.00463666       0.00555295
Ti       0.39474656       8.81056160       9.21754648      -0.00094376       0.00159794       0.00713582
Ti       3.70719110       1.36356337       9.82245429       0.00297814       0.00822374       0.00199080
Ti       1.16849433       6.23009511       9.82901872       0.00220903       0.00893706       0.00344385
Ti       2.71414611       8.51152360      10.56569721      -0.00072367       0.01236456       0.00660445
Ti       0.16694985       3.64198524      10.56949734       0.00204539       0.01502634       0.00618808
Ti       1.03442782       0.97217317      11.16741036      -0.00526675      -0.00147309       0.00795284
Ti       3.58127751       5.83724873      11.17669732      -0.00650916       0.00450193       0.00772899
Ti       0.23051166       8.04543162      11.84226558       0.00290634       0.00244407       0.01058983
Ti       2.77213229       3.17779623      11.84668038       0.00108744       0.00408237       0.01047441
Ti       3.59144527       0.51540470      12.61407358      -0.00002783       0.00180494       0.01336124
Ti       1.04509916       5.37873895      12.62850365       0.00103280       0.00872599       0.01002389
Ti       2.78055389       7.58033071      13.29490847      -0.00305258       0.00660433       0.01155025
Ti       0.23172297       2.71345181      13.30127676      -0.00309866       0.00412728       0.01014149
Ti       1.07306872       0.05347813      13.99014893       0.00412857       0.00301531       0.00906455
Ti       3.61627122       4.91168492      14.01192577       0.00472937       0.00870756       0.00688977
Ti       0.19287718       7.16113400      14.67579858      -0.00436457       0.00695223       0.00335958
Ti       2.72765201       2.29230291      14.68427688      -0.00399256       0.00157723       0.00244436
Ti       3.62576692       9.37877558      15.35600421       0.00034976       0.00158817       0.00124593
Ti       1.07026130       4.49765488      15.38200792      -0.00096125       0.00636402       0.00156906
Ti       2.72397605       6.76399228      16.04597229      -0.00135326       0.00709533      -0.00165539
Ti       0.16603677       1.91246955      16.05965445      -0.00222396      -0.00026247      -0.00173074
Ti       1.02250414       8.96501035      16.74840410       0.00172720       0.00384680       0.00066043
Ti       3.53419275       4.06883060      16.80527083       0.00068341       0.00634925       0.00327629
Ti       0.22779262       6.23553352      17.38148419       0.00017782       0.00706875       0.00398615
Ti       2.73732644       1.36998350      17.40299079      -0.00004702       0.00097026       0.00485797
Ti       3.73929420       8.34339662      18.18578068      -0.00327119       0.00429205      -0.00024365
Ti       1.12238240       3.48557257      18.30398370      -0.00239169       0.00556134       0.00441891
Ti       5.01748983       0.90813950      18.87828656      -0.00009376      -0.00011661      -0.00045142
Ti       2.50168886       5.76387220      18.89062234      -0.00187774       0.00362140       0.00051262
Ti       1.22392831       8.19481184      19.41065476      -0.00031895       0.00071628       0.00300977
Ti       3.65233429       3.33848821      19.52285511      -0.00561724       0.00286073       0.00789110
Ti       5.07234054       5.88704724      20.10980420       0.00266208      -0.00078632       0.00096002
Ti       2.43991669       1.04464562      20.13712854      -0.00046841      -0.00051139      -0.00136570
Ti       4.05759723       8.71035391      20.90884140      -0.00180714      -0.00397936      -0.00520311
V        1.42996303       3.87628391      20.97353600      -0.00733239      -0.00264349      -0.00503889
Ti       4.90183662       1.71684827      21.52903772       0.00283356      -0.00302326      -0.00334265
Ti       2.30829060       6.54105313      21.54185519       0.00169981      -0.00735962      -0.00214589
Ti       4.02447633       4.40556765      22.23362185       0.00123320      -0.00318313      -0.00337177
Ti       1.47140599       9.24994904      22.26332855       0.00081972      -0.00791234      -0.00319444
Ti       2.35230481       2.17316977      22.86018188       0.00127098      -0.00298694      -0.00422013
Ti       4.89894220       7.02419916      22.95126536       0.00138017      -0.00428328      -0.00604953
Ti       1.46831649       4.80880391      23.61140530      -0.00345781      -0.00397945      -0.00520972
Ti       4.00772278       9.69622621      23.61268853      -0.00267647      -0.00570934      -0.00550625
Ti       4.88578677       2.59752113      24.29538092       0.00592237      -0.00293944      -0.00782812
Ti       2.35801963       7.45386971      24.31647579       0.00592856      -0.00585865      -0.01062290
Ti       1.51148037       0.39587863      24.97880435      -0.00360618      -0.00283621      -0.01060055
Ti       4.05371195       5.25533772      24.99051586      -0.00364309      -0.00518512      -0.00864838
Ti       2.33552253       3.05662327      25.66576406       0.00333231      -0.00682483      -0.01196608
Ti       4.87618241       7.93291422      25.67620006       0.00259933      -0.01001129      -0.01455536
Ti       4.05791897       0.85712249      26.44466530       0.00034644      -0.00747078      -0.01536845
Ti       1.50655261       5.72884012      26.44741409       0.00323893      -0.01038166      -0.01465201
Ti       4.85358334       3.52933345      27.11139584      -0.00402842      -0.00249284      -0.00805529
Ti       2.30247329       8.40504258      27.12125388      -0.00202526      -0.00408660      -0.00520826
Ti       1.44525899       1.34226616      27.72169940       0.00937593      -0.00432843      -0.00287043
Ti       3.98451496       6.21149761      27.72271469       0.00623762      -0.00634110      -0.00427954
Ti       2.44341939       3.93257883      28.46632574       0.00680265      -0.00405645       0.00094019
Ti       4.98214195       8.80300604      28.47552018       0.00661125      -0.00305662       0.00485351
Ti       4.21056494       1.64557138      29.06694045      -0.00266267      -0.01014505      -0.00038256
Ti       1.66536420       6.51370932      29.06984613      -0.00202474      -0.00811818      -0.00059912
Ti       2.28730806       9.41632149      29.62468473      -0.00160263      -0.00915619      -0.00470841
Ti       4.83433610       4.54219387      29.61861757      -0.00207330      -0.00895711      -0.00359053
