52
Lattice="5.088765 0.0 0.0 0.0 5.495746 0.0 0.0 0.0 48.722931" Properties=species:S:1:pos:R:3:forces:R:3 job_name=Segregation-1sol-addvac-C1-V-V-26-d-0.00 top_level=Segregation-1sol-addvac solute=V energy=-396.78912314 stress_kbar_3x3="_JSON [[-13.38742753, 0.28206019, 0.33462183], [0.28206016, -11.59972621, 2.79484171], [0.33462188, 2.79484169, -0.29449686]]" pbc="T T T"
Ti       2.01013997       0.29564472       9.00168232       0.00337224      -0.00572765       0.00565620
Ti       4.62818788       1.25383467       9.90793297       0.00115601      -0.00796433       0.00454837
Ti       0.14805526       3.98704643       9.48267171      -0.00295827       0.00070099       0.00468753
Ti       2.16429800       2.26274261      10.58429379       0.00029425      -0.00147616       0.00180250
Ti       3.35625797       4.64395178      11.13113035       0.00625437      -0.00279307      -0.00613293
Ti       0.86391997       5.48796145      11.74880392      -0.00377346      -0.00373700      -0.00676712
Ti       0.09759314       2.75660692      12.18916712      -0.00052797       0.00503648      -0.00332992
Ti       2.42650023       3.77904623      13.50452382       0.00459815       0.00603238      -0.00356144
Ti       3.16630597       1.02567887      13.15069612      -0.00036022      -0.00590927      -0.00072425
Ti       4.99096488       4.55092407      14.36262508      -0.00306299      -0.00269796       0.00345592
Ti       0.94450227       1.67815534      14.65640023      -0.00283982      -0.00238513       0.00755734
Ti       3.52071659       2.43451094      15.69104296       0.00181901      -0.00043576       0.00485283
Ti       2.72072660       5.20533379      15.83047748      -0.00113901      -0.00426191       0.00488881
Ti       0.85034759       3.32973365      16.91073173       0.00033966      -0.00195735      -0.00160783
Ti       0.05597441       0.55344089      17.08380618      -0.00064858      -0.00003470      -0.00317372
Ti       2.60948300       1.32720921      18.16057274       0.00093578      -0.00080052      -0.00614836
Ti       3.47301160       4.03079034      18.30068357      -0.00080372       0.00124235      -0.00745543
Ti       0.97162568       4.81958633      19.45868449      -0.00086617      -0.00089259      -0.00032390
Ti       0.17704066       2.06047082      19.47796867      -0.00109793      -0.00072149      -0.00066589
Ti       3.48767421       0.15382519      20.64776233      -0.00016728      -0.00399848       0.00066391
Ti       2.59604994       2.86498780      20.74370474       0.00415355       0.00049394       0.00601732
Ti       0.08664588       3.52899639      21.83808348      -0.00591573      -0.00165952       0.00154942
Ti       0.86823956       0.71751729      22.04567806      -0.00223134       0.00074518       0.00218387
Ti       3.29866199       1.74692386      23.16931206      -0.00038324       0.01733203       0.00297269
Ti       2.91941843       4.50645006      23.12168289      -0.00040893      -0.01437550       0.00443854
Ti       0.94512153       3.05951041      24.42457881       0.00868107       0.00249050       0.00270439
V        5.03354921       0.26323900      24.51540020       0.00296838      -0.00242167       0.00377015
Ti       2.47144039       0.31470129      25.43914576       0.00243708      -0.00163139       0.00144673
Ti       3.45747417       3.07134897      25.48653273      -0.00897282       0.00015700      -0.01016745
Ti       0.48070717       1.68454574      26.76934198       0.00290458       0.00898447       0.00153092
Ti       0.28547700       4.46495216      26.72923223      -0.00075797      -0.00443559      -0.00138218
Ti       2.52391800       3.28837647      28.05767111      -0.00235438       0.00277974      -0.00274198
Ti       3.26151750       0.52762708      28.04900886      -0.00315190      -0.00267832      -0.00398502
Ti       4.95020679       2.62579518      29.26187056       0.00148015       0.00150543      -0.00412819
Ti       0.79157524       5.36980179      29.26937274       0.00028412       0.00070788      -0.00178770
Ti       3.30048096       4.59365626      30.51351923      -0.00066537       0.00335484       0.00105826
Ti       2.49776931       1.81691542      30.45958698       0.00072566       0.00120712       0.00275715
Ti       0.00592723       1.02347371      31.79618459      -0.00048919       0.00133675      -0.00018060
Ti       0.73411475       3.75962675      31.66533369       0.00112832       0.00326843       0.00103027
Ti       2.43220856       0.13177887      33.00932580      -0.00075539       0.00232304      -0.00586776
Ti       3.23959257       2.90282490      32.92381509      -0.00026741      -0.00338235      -0.00348900
Ti       0.90284963       2.22060120      34.32821834      -0.00011022      -0.00003112      -0.00167442
Ti       5.00691422       4.87306828      34.08677224      -0.00054272       0.00128715      -0.00777102
Ti       3.45322695       1.42516737      35.23288837      -0.00035481       0.01090535       0.00417096
Ti       2.72728739       4.16351966      35.55432794       0.00586374      -0.00447063       0.00068455
Ti       5.03657847       3.13495606      36.96389780      -0.00600694      -0.00557710       0.00306763
Ti       0.72084220       0.40638802      36.55076013      -0.00341773       0.00834494       0.00730446
Ti       3.72179501       5.39298390      38.12862455      -0.00178602       0.00384402       0.00374527
Ti       2.54125565       2.29321120      37.59971485       0.00700492      -0.00487729       0.00003504
Ti       1.26085848       4.38371584      38.82370635      -0.00094515       0.00229266       0.00260218
Ti       0.64566211       1.62389755      39.23491468      -0.00331704       0.00389198      -0.00101936
Ti       3.88009238       3.43185759      39.72234159       0.00467870       0.00106919      -0.00709777
