52
Lattice="4.6568 0.0 0.0 0.0 7.770572 0.0 0.0 0.0 41.044546" Properties=species:S:1:pos:R:3:forces:R:3 job_name=Segregation-1sol-addvac-CSL7-V-V-38-d-6.58 top_level=Segregation-1sol-addvac solute=V energy=-393.97488464 stress_kbar_3x3="_JSON [[-15.72194936, 0.06536885, -0.2860966], [0.06536885, -17.66116595, -0.04683087], [-0.28609661, -0.04683088, -1.52768075]]" pbc="T T T"
Ti       2.31598550       7.25846571       8.69977957       0.00101504      -0.00015689      -0.00580338
Ti       4.65217358       5.36691325       8.94470911       0.00222840       0.00648747      -0.01471147
Ti       2.31929997       2.25981782       9.46653640       0.00143970      -0.00510554      -0.00281247
Ti       4.64988124       0.55180084       9.80818814       0.00109838       0.00233030       0.00170728
Ti       2.32278944       4.98047105      10.42774563       0.00194804      -0.00155353       0.00185815
Ti       4.65008724       3.38905045      10.74791189       0.00186716      -0.00553232       0.00107047
Ti       2.32552627       0.10592374      11.35763824       0.00189342       0.00178424       0.00774144
Ti       4.65524868       6.14151853      11.59422487       0.00214500       0.00495655       0.01043785
Ti       2.32360181       2.78814816      12.27964937       0.00152091       0.00147413       0.00984781
Ti       4.65400719       1.12438906      12.64543990       0.00200699      -0.00141004       0.00495258
Ti       2.32356752       5.58698742      13.18552257       0.00131928      -0.00094693       0.01063217
Ti       4.65173988       3.92358883      13.58339846       0.00137854       0.00121570       0.01054693
Ti       2.32832260       0.58829586      14.23281676       0.00140887      -0.00346547       0.00693786
Ti       0.00518850       6.67555155      14.46445752       0.00192949      -0.00152042       0.00940494
Ti       2.32158716       3.34237301      15.16004959       0.00099088      -0.00181576       0.00148971
Ti       0.00542364       1.70409828      15.51954201       0.00135590       0.00065123       0.00705031
Ti       2.34374083       6.11135044      16.00414815       0.00045878       0.00082930      -0.00005996
Ti       4.61695769       4.46126717      16.48415655      -0.00112720      -0.00070787      -0.00166683
Ti       2.35210587       1.11630569      17.11323829      -0.00141532       0.00052022      -0.00266751
Ti       0.01857297       7.23101045      17.25298272      -0.00098965       0.00124818      -0.00156200
Ti       2.21994286       3.81395420      18.05834020       0.00099490       0.00140728      -0.00038331
Ti       0.11582223       2.18791693      18.47589010      -0.00319642      -0.00442569       0.00084742
Ti       2.27164021       6.59442894      18.70722126       0.00339581      -0.00117337      -0.00100604
Ti       4.15340232       4.84284263      19.36266403       0.00206504      -0.00153200      -0.00027035
Ti       0.36320505       7.66062937      20.07003590      -0.00089139       0.01328536       0.00033416
Ti       2.69326056       1.61635703      20.06404183      -0.00056484      -0.00197359      -0.00068693
Ti       1.23545553       4.84530889      20.78024829      -0.00359397       0.00005383      -0.00118071
Ti       3.11763618       6.59248477      21.43099546      -0.00391499      -0.00061734       0.00220631
Ti       0.61362411       2.19043805      21.65336877       0.00207912      -0.00389793      -0.00078210
Ti       3.16990689       3.80574122      22.07761078      -0.00100286       0.00066740       0.00007361
Ti       0.71112813       7.23614509      22.89661322      -0.00005371       0.00356357       0.00212098
Ti       3.03227070       1.11821505      23.00835098       0.00037875      -0.00100451       0.00247013
Ti       0.77467294       4.45215272      23.65450054       0.00074268       0.00206514       0.00285999
Ti       3.03931896       6.09470641      24.10719790      -0.00079537       0.00479978       0.00294412
Ti       0.72426118       1.72101606      24.62071562      -0.00208157      -0.00024315      -0.00152899
Ti       3.06832114       3.33712530      24.97924085      -0.00074269      -0.00144875       0.00073232
Ti       0.71522089       6.63627402      25.66164378      -0.00133504       0.00237263      -0.00387674
Ti       3.05143696       0.54315991      25.87757578      -0.00144282      -0.00034775      -0.00337781
V        0.72946241       3.91893610      26.46889093      -0.00090626       0.00046165      -0.00640501
Ti       3.05428122       5.48298982      26.89318208      -0.00083479      -0.00243863      -0.00866251
Ti       0.72253541       1.19696158      27.45720503      -0.00090495      -0.00215766      -0.01047259
Ti       3.05129167       2.84254250      27.74463908      -0.00099695      -0.00376438      -0.01116541
Ti       0.72325884       6.08449978      28.42210851      -0.00105728       0.00168638      -0.00756912
Ti       3.05236226       7.76974410      28.71802649      -0.00110193       0.00066118      -0.01096128
Ti       0.72083233       3.41879144      29.32027899      -0.00104384       0.00002867      -0.00778733
Ti       3.05286529       5.10208916      29.76587296      -0.00051133       0.00149136      -0.01256343
Ti       0.72481236       0.64024240      30.25100876      -0.00103431      -0.00178501      -0.00397438
Ti       3.05258777       2.23042319      30.51372339      -0.00141694      -0.00413927       0.00041835
Ti       0.72541551       5.56729588      31.23173315      -0.00033812       0.00231131      -0.00007193
Ti       3.05348404       7.30583395      31.54791926      -0.00048363      -0.00392600       0.00072248
Ti       0.72379506       2.64158992      32.00170543      -0.00145367       0.00698274       0.01422090
Ti       3.05476305       4.50307422      32.36351090      -0.00042924      -0.00624581       0.00838132
