64
Lattice="5.872 0.0 0.0 0.0 6.890708 0.0 0.0 0.0 43.394398" Properties=species:S:1:pos:R:3:forces:R:3 job_name=Segregation-1sol-addvac-T1g-V-V-49-d-6.96 top_level=Segregation-1sol-addvac solute=V energy=-486.68474301 stress_kbar_3x3="_JSON [[-7.05080838, -0.00032602, 0.00030082], [-0.00032605, -18.06904547, -0.23759202], [0.00030083, -0.237592, -3.11178302]]" pbc="T T T"
Ti       0.00006103       3.39737043       8.87941501       0.00027403      -0.00189756       0.01391180
Ti       2.93595898       3.39742296       8.87955578      -0.00039088      -0.00199061       0.01273571
Ti      -0.00013076       6.48189467       9.28544559       0.00028047       0.00393293       0.01134361
Ti       2.93606590       6.48193419       9.28550373      -0.00028854       0.00382000       0.01058904
Ti       1.46801590       1.75246082      10.47691200      -0.00077353      -0.01159706       0.00773784
Ti       4.40399026       1.75243671      10.47652847       0.00076455      -0.01222016       0.00863364
Ti       4.40397022       4.67440602      10.83120110       0.00060304       0.01206977       0.01410980
Ti       1.46797167       4.67463668      10.83134977      -0.00038253       0.01201263       0.01393042
Ti       2.93612704       6.77306019      12.09608817       0.00047270       0.00197445       0.01345707
Ti      -0.00006735       6.77314295      12.09618577      -0.00045564       0.00145620       0.01260071
Ti       2.93589222       2.83812076      12.64372540       0.00039356      -0.00038732       0.01346997
Ti       0.00005534       2.83811807      12.64377096      -0.00019115      -0.00045648       0.01336302
Ti       4.40399563       4.99193762      13.79111600       0.00003074       0.00123602       0.00306222
Ti       1.46800717       4.99203369      13.79136713       0.00000995       0.00200106       0.00329761
Ti       4.40400295       0.93369307      14.32972165       0.00012709       0.00343756       0.01150136
Ti       1.46807821       0.93382610      14.33037336      -0.00037104       0.00324670       0.01293516
Ti       2.93621611       3.08480590      15.47539549       0.00022973       0.00365002       0.00339241
Ti       5.87183121       3.08479210      15.47549932      -0.00015967       0.00366324       0.00288255
Ti       2.93595382       6.00024304      16.05416679       0.00015538      -0.00358143       0.00017565
Ti       0.00007793       6.00024814      16.05417078      -0.00015138      -0.00345900       0.00003350
Ti       4.40399750       1.27084263      17.23967624       0.00000535       0.00199199      -0.00036337
Ti       1.46803080       1.27025535      17.24175280      -0.00001811       0.00105711      -0.00103118
Ti       1.46802036       4.10640872      17.72806747       0.00008512      -0.00416198      -0.00369837
Ti       4.40400158       4.10684847      17.72791434      -0.00005464      -0.00458254      -0.00459905
Ti       2.93491425       6.22614689      18.87026257      -0.00100952      -0.00275027      -0.00793045
Ti       0.00109427       6.22612925      18.87026258       0.00102738      -0.00265130      -0.00784050
Ti       5.86911359       2.39021734      19.46335244      -0.00110787       0.00021322      -0.00521947
Ti       2.93892091       2.39019611      19.46338007       0.00108351       0.00035671      -0.00533911
Ti       1.46802080       4.50734297      20.78657673      -0.00003597      -0.00015182      -0.00000453
Ti       4.40400468       4.50893480      20.78538523       0.00003347      -0.00252236      -0.00070979
Ti       1.46799844       0.45767617      20.97912344      -0.00006176       0.00317453      -0.00383030
Ti       4.40401116       0.45786180      20.98303255      -0.00010023       0.00481269      -0.00551519
Ti       2.94269725       2.47170362      22.26708427      -0.00103164      -0.00466027       0.00876849
Ti       5.86530688       2.47173060      22.26708282       0.00106722      -0.00465655       0.00873444
Ti       0.01344766       5.94537458      22.87370752       0.00139686       0.00611849       0.00032598
Ti       2.92258813       5.94540488      22.87375199      -0.00143937       0.00608307      -0.00004397
Ti       4.40397455       3.92895387      24.12482292       0.00002176       0.00734114      -0.00582021
Ti       1.46805957       3.91432255      24.15201279      -0.00011587       0.00352045      -0.00116084
Ti       1.46801406       1.07897663      24.37659782       0.00007785      -0.00588617       0.00274539
Ti       4.40402073       1.08543438      24.38201795      -0.00007018      -0.00708165       0.00655786
Ti       5.85843873       5.83489504      25.70293468      -0.00126777       0.00000579       0.00177189
Ti       2.94960020       5.83488784      25.70295721       0.00131266       0.00000641       0.00187261
Ti       2.97139099       2.85300278      26.26192929       0.00123528       0.00353708      -0.00232027
Ti       5.83666167       2.85306472      26.26185136      -0.00120015       0.00327279      -0.00190796
Ti       4.40402523       0.66181184      27.37261635       0.00010764      -0.00286095      -0.01279815
Ti       1.46800390       0.73867350      27.39109552      -0.00009719       0.00340396      -0.01311357
Ti       1.46803270       4.74336986      27.87603379      -0.00004348      -0.00112875      -0.00215433
V        4.40407548       4.72308383      27.84564748      -0.00000894       0.00268839      -0.00360542
Ti       2.96760004       2.60651504      29.05207585       0.00105965      -0.00576455      -0.00962667
Ti       5.84044486       2.60655494      29.05207356      -0.00105553      -0.00598060      -0.00984057
Ti       2.93363897       6.53862033      29.57122983       0.00502185      -0.00576470      -0.01258867
Ti       0.00241808       6.53863570      29.57127554      -0.00503487      -0.00579544      -0.01278102
Ti       4.40399523       4.42865922      30.70647104       0.00006357      -0.00084309      -0.00072813
Ti       1.46801959       4.44808746      30.77927303      -0.00012771      -0.00078123      -0.01005447
Ti       1.46804601       1.47142331      31.20911917      -0.00009491       0.00279791       0.00133894
Ti       4.40400735       1.47932864      31.23373730       0.00006539      -0.00161068      -0.00336071
Ti       2.94615662       6.29643018      32.51609106      -0.00456819      -0.00223958       0.00092273
Ti       5.86185966       6.29641947      32.51612977       0.00449996      -0.00218933       0.00083991
Ti       5.84289380       3.31706679      32.88254810      -0.00264392       0.00915216      -0.01693670
Ti       2.96507691       3.31702826      32.88253054       0.00278686       0.00930688      -0.01667576
Ti       1.46800575       1.20312359      34.05716585       0.00000485      -0.01095454      -0.00406992
Ti       4.40397501       1.21478102      34.09888868      -0.00000972      -0.00704000      -0.00207026
Ti       1.46799502       4.98853970      34.42430950       0.00001355       0.00169144      -0.01872223
Ti       4.40396761       4.98449375      34.46935130       0.00005091       0.00461516      -0.01058023
