100
Lattice="4.4265 -2.555641 0.0 3.767997 6.526363 -0.031456 0.0 0.0 61.781652" Properties=species:S:1:pos:R:3:forces:R:3 job_name=Segregation-1sol-addvac-CSL13-Al-Al-51-d-0.00 top_level=Segregation-1sol-addvac solute=Al energy=-761.56962113 stress_kbar_3x3="_JSON [[-25.59332858, -2.80933719, 1.63091851], [-2.80933719, -27.98297312, 2.19260345], [1.63091848, 2.19260342, -0.69732284]]" pbc="T T T"
Ti       2.49366017      -0.77613724       8.84051587      -0.00996433      -0.00540904      -0.01556566
Ti       5.80247023       1.65855467       8.82372465      -0.00398919      -0.00838635      -0.01597600
Ti       5.25933286      -1.02295701       9.78666104      -0.00285827      -0.00955131      -0.00272722
Ti       4.20560696       3.93544779       9.76799868      -0.01277763      -0.00984183      -0.00386385
Ti       3.65188644       1.20129614      10.43602972      -0.01308624      -0.00306335       0.00297234
Ti       6.93485620       3.65343715      10.41599882       0.00031015      -0.01438600       0.00389984
Ti       1.61527693      -0.60564464      11.39554728      -0.01082024      -0.00879680       0.00772614
Ti       6.38897097       0.99156735      11.38116624      -0.00567879      -0.01188866       0.00674373
Ti       4.32449936      -0.83437995      12.34418778      -0.00859552      -0.00615152       0.00052687
Ti       4.83249668       3.22875434      12.32892879      -0.00434624      -0.00995593       0.00022572
Ti       2.71944590       1.38746769      13.15394881      -0.00907332      -0.01088219       0.00021939
Ti       7.55920973       2.94768493      13.13852620      -0.00883346      -0.01263396       0.00057218
Ti       5.54448086       1.12486023      14.18586958      -0.00420506      -0.00850487       0.00559332
Ti       5.90715483       5.26361379      14.17446793      -0.00771392      -0.00687144       0.00608220
Ti       0.58831475       0.97062500      14.97263270      -0.00479424      -0.01037771      -0.00324831
Ti       3.82157397       3.44429343      14.95347956      -0.00799978      -0.00809991      -0.00335897
Ti       3.24806167       0.76370897      15.83284072      -0.01007110      -0.00497313      -0.00394246
Ti       6.74463879       3.09615953      15.81598884      -0.00189857      -0.01022111      -0.00409431
Ti       6.13309940       0.50593189      16.99838275      -0.00226756      -0.00484914      -0.00149915
Ti       5.06243916       5.47322230      16.98225510      -0.00441549      -0.00430915      -0.00129585
Ti       4.01423074      -1.34093790      17.55824779      -0.00300467      -0.00718982      -0.01058483
Ti       4.52588431       2.72121719      17.54337754      -0.00596164      -0.00552682      -0.01190669
Ti       2.67527510       0.86396618      18.57557155       0.00383780      -0.00543366      -0.00466872
Ti       7.09898977       2.66396228      18.56450751      -0.00693449       0.00054202      -0.00546990
Ti       5.28333977       0.83737989      19.85937938      -0.00143915      -0.00055339       0.00061128
Ti       5.76592383       4.91180732      19.84660296       0.00073146      -0.00198542       0.00000692
Ti       4.75808437      -1.95097371      20.13805687      -0.00285219      -0.00208260      -0.00890756
Ti       3.61196989       3.05975011      20.12224732      -0.00049957      -0.00236761      -0.00904969
Ti       2.83492464       0.66458581      21.35237808      -0.00140112       0.00045731       0.00269911
Ti       6.83516215       2.70761277      21.33510838       0.00171186      -0.00060854       0.00399241
Ti       4.91115935       5.33555237      22.70338359       0.00245334       0.00224244       0.00837732
Ti       6.06624610       0.31083483      22.71767075       0.00051549       0.00056148       0.00822188
Ti       3.90195340      -1.53415681      22.76405696       0.00075952       0.00186634       0.00505700
Ti       4.38881948       2.53420496      22.73688529       0.00226877      -0.00015120       0.00427148
Ti       2.77519204       0.62799820      24.12847583       0.00334897       0.00179811       0.00548450
Ti       6.83286794       2.65016013      24.10039105       0.00070240       0.00324907       0.00598023
Ti       5.22062464       0.73732184      25.59163727       0.00321845       0.00104107      -0.00065728
Ti       5.70802057       4.83341512      25.52645383       0.00241145       0.00173261       0.00091067
Ti       0.29825115       0.51404854      25.37884599       0.00272550       0.00285468      -0.00278193
Ti       3.55457786       2.96491317      25.33153341       0.00306182       0.00083665      -0.00337558
Ti       2.62304429       0.69036798      26.96432159       0.00087286       0.00288191      -0.00514499
Ti       6.98735263       2.49352543      26.88080004       0.00846301       0.00214661      -0.00045326
Ti       5.92963426       0.35794576      28.43001659       0.00764866       0.00439460       0.00083664
Ti       4.93930699       5.27492641      28.41502981       0.00565920       0.00211964       0.00194710
Ti       3.88829859      -1.60426180      27.93358636       0.00644748       0.00316314      -0.00550147
Ti       4.45011972       2.60846534      27.84849547       0.00647821       0.00373142      -0.00622859
Ti       3.31964420       0.33435420      29.68578817       0.00522843       0.00780624      -0.00264770
Ti       6.69199431       2.88452617      29.66300208       0.00262488       0.00790275      -0.00338867
Ti       0.70179963       0.79586419      30.39390796       0.00093362       0.00437522       0.00069437
Ti       3.78244449       3.02747553      30.42672263       0.00850382       0.00921114      -0.00358497
Ti       5.75788745       5.02147873      31.24288818       0.00966250       0.00656624       0.00387577
Al       5.53472389       0.83726174      31.32250021       0.00393328       0.00480476       0.00138597
Ti       2.78197840       1.15996420      32.30741745       0.00318110       0.00792824       0.00027266
Ti       3.16381183       5.05901103      32.28201576       0.00346349       0.01050799      -0.00213396
Ti       4.89175444       3.00874949      33.00086894       0.00414826       0.00423061       0.00175140
Ti       4.28962291      -1.20811092      32.99503960       0.00713043       0.00882992       0.00275527
Ti       1.54545671      -0.89091912      34.11482235       0.00369367       0.00896629       0.00051827
Ti       6.24298355       0.69514531      34.11662170       0.00524291       0.00692967       0.00142180
Ti       6.90557577       3.39597871      34.81919525       0.00622014       0.01028414      -0.00444665
Ti       3.59611633       0.85488423      34.90545226       0.00253266       0.00642203      -0.00315093
Ti       4.22609780       3.53296530      35.67767542       0.00653070       0.00651372      -0.00013844
Ti       5.08988708      -1.29574768      35.73091472       0.00059451       0.00805564      -0.00298997
Ti       2.30286592      -1.18116182      36.97953255       0.00413260       0.00582603      -0.00159722
Ti       5.67869798       1.24625862      36.93262671       0.00042852       0.00694314      -0.00140343
Ti       3.36741394       5.62868997      37.39646374       0.00099118       0.00576488      -0.00345923
Ti       2.86903054       1.58867337      37.42592006       0.00303212       0.00545039      -0.00269690
Ti       4.63719851       3.43329314      38.47857339       0.00064720       0.00700007       0.00043692
Ti       4.72625288      -0.97368764      38.48482731       0.00148572       0.00350369       0.00048624
Ti       2.04660339       3.41017088      39.79258836       0.00057257       0.00390610       0.00339296
Ti       1.56520384      -0.66852270      39.80450681       0.00051796       0.00246540       0.00296030
Ti       3.71256332       1.17899147      40.00976507       0.00099195       0.00271020       0.00320094
Ti       7.00697130       3.63686186      39.98482588       0.00015111       0.00243274       0.00259780
Ti       4.50232276       3.54792229      41.25312451       0.00214562       0.00232718       0.00371541
Ti       4.89282419      -1.02704703      41.26571557      -0.00008584       0.00300608       0.00404494
Ti       5.67954974       1.33567825      42.61883150       0.00171041       0.00167214       0.00159220
Ti       2.38710105      -1.11476121      42.63744709      -0.00079792       0.00108331       0.00144683
Ti       2.92384178       1.66440647      42.65755695       0.00110720       0.00236684      -0.00135899
Ti       3.39245654       5.74687463      42.63898129       0.00007259       0.00237845      -0.00184395
Ti       4.52698241       3.55617496      44.00330622      -0.00068418       0.00218449      -0.00144286
Ti       4.88366760      -1.00137333      44.01773212       0.00251799       0.00103734      -0.00224714
Ti       2.06798313       3.43791035      45.44225555       0.00117835      -0.00014179       0.00062009
Ti       1.58312454      -0.63231932      45.45750358      -0.00089526       0.00095995       0.00112529
Ti       3.73128658       1.21603630      45.30905526       0.00098986      -0.00023085      -0.00066813
Ti       7.02087400       3.66735373      45.29104089      -0.00092734      -0.00016339      -0.00054886
Ti       4.61413284       3.51172997      46.76907155      -0.00126031      -0.00009585       0.00067651
Ti       4.79669862      -0.94584492      46.78399709       0.00079875      -0.00065098       0.00127053
Ti       5.70467856       1.32708606      48.27540361       0.00012167       0.00044522      -0.00131692
Ti       2.35754448      -1.08917838      48.29242760       0.00145132      -0.00004109      -0.00139868
Ti       2.92439856       1.64728965      47.93186579       0.00224608       0.00058937      -0.00370114
Ti       3.36548181       5.74367874      47.91730609       0.00004815       0.00146763      -0.00376292
Ti       4.28954488       3.58134556      49.51769084      -0.00377677      -0.00285825      -0.00249108
Ti       5.01415156      -1.18665940      49.53425093       0.00015732      -0.00488338      -0.00152127
Ti       1.98480814       3.26979868      51.23763092       0.00381035      -0.00325828       0.01084674
Ti       1.46478074      -0.78338341      51.25354117      -0.00211782       0.00097494       0.01084735
Ti       3.57272538       1.01904722      50.56253678      -0.00237757      -0.00149694       0.00673747
Ti       6.91807240       3.43908640      50.54641578       0.00130678      -0.00343647       0.00629668
Ti       4.70251973       3.05845440      52.13580374      -0.00237834      -0.00170967       0.00657781
Ti       4.35000378      -1.08901473      52.15125982       0.00150140      -0.00274518       0.00610597
Ti       2.56806757       1.22706870      53.01211902       0.00044937      -0.00312097       0.00701723
Ti       3.17270389       5.23117341      52.99770659      -0.00103182      -0.00156373       0.00661227
