64
Lattice="5.872 0.0 0.0 0.0 6.890708 0.0 0.0 0.0 43.394398" Properties=species:S:1:pos:R:3:forces:R:3 job_name=Segregation-1sol-addvac-T1g-Al-Al-45-d-5.32 top_level=Segregation-1sol-addvac solute=Al energy=-482.92742995 stress_kbar_3x3="_JSON [[-7.71783428, 0.00038635, -0.00022966], [0.00038636, -17.73396638, 0.49427426], [-0.00022968, 0.49427427, -2.34512038]]" pbc="T T T"
Ti       2.93597759       3.40171259       8.88046432       0.00020483       0.00074683       0.01225400
Ti       0.00001198       3.40199379       8.87892706      -0.00015576       0.00081922       0.01114929
Ti       2.93598615       6.48907452       9.28491956       0.00019918      -0.00849667       0.00214880
Ti       0.00003472       6.48939158       9.28329410      -0.00019710      -0.00776158       0.00304745
Ti       1.46702070       1.75653364      10.47477778       0.00055087      -0.00035625      -0.01136071
Ti       4.40496688       1.75656029      10.47478342      -0.00046866      -0.00036430      -0.01138614
Ti       1.46749571       4.68120785      10.82988087       0.00051759       0.00706530      -0.00954458
Ti       4.40453487       4.68116841      10.82987239      -0.00064169       0.00730052      -0.00962247
Ti       2.93602829       6.77744759      12.09420698       0.00003318      -0.00333659       0.01028412
Ti       5.87198082       6.77778765      12.09322358      -0.00006409      -0.00329874       0.01030387
Ti       2.93601660       2.84296063      12.63712592       0.00005194       0.00304441       0.01072167
Ti       5.87198739       2.84204934      12.64073747      -0.00006585       0.00371429       0.01148278
Ti       4.40471930       4.99498676      13.78286984       0.00026273      -0.00203359       0.00963457
Ti       1.46728165       4.99496074      13.78287973      -0.00027889      -0.00191505       0.00972624
Ti       4.40513748       0.93712046      14.32312181       0.00021844       0.00224012       0.00734495
Ti       1.46686136       0.93713014      14.32311386      -0.00021153       0.00222324       0.00747459
Ti       2.93600690       3.08710219      15.46104286      -0.00008932      -0.00447217       0.00280330
Ti       5.87198184       3.08584785      15.46666383       0.00009429      -0.00453996       0.00387299
Ti       2.93600545       6.00166768      16.03788440      -0.00010319      -0.00240487      -0.00055439
Ti       5.87199843       5.99984807      16.04452585       0.00011081      -0.00251702       0.00123949
Ti       4.39979577       1.26959958      17.23057511       0.00001826      -0.00123022      -0.00107485
Ti       1.47219000       1.26960898      17.23060722      -0.00000833      -0.00128609      -0.00134077
Ti       1.46892771       4.09929833      17.70981195      -0.00081476      -0.00669096      -0.00146098
Ti       4.40305213       4.09931573      17.70979415       0.00084316      -0.00666127      -0.00124824
Ti       2.93598147       6.21591840      18.84337809       0.00014407      -0.00955708      -0.00384773
Ti       0.00000255       6.21310159      18.85322876      -0.00005877      -0.00921128      -0.00230333
Ti       0.00000295       2.38639649      19.42858795      -0.00006966       0.00435391      -0.00540459
Ti       2.93597547       2.38773050      19.46220796       0.00010692       0.00515346      -0.00434860
Ti       1.47681160       4.50550014      20.78511718       0.00206460      -0.00370009       0.00411306
Ti       4.39518818       4.50549243      20.78511020      -0.00204685      -0.00371591       0.00411777
Ti       4.38114414       0.44443243      20.94253246      -0.00169707      -0.00557327      -0.00334141
Ti       1.49084121       0.44443052      20.94250606       0.00172174      -0.00546950      -0.00317890
Ti       5.87198737       2.45254160      22.20169080      -0.00002665      -0.00694420       0.00091307
Ti       2.93601733       2.44296479      22.26681630       0.00006237      -0.00586982       0.00005396
Ti       0.00001200       5.94445186      22.85337853      -0.00004686       0.01225537       0.00519579
Ti       2.93599643       5.94588379      22.87024393       0.00002581       0.00967578       0.00869627
Ti       4.44846009       3.90059534      24.09855837      -0.00326048       0.00046230      -0.00181567
Ti       1.42359905       3.90059327      24.09854117       0.00320431       0.00042642      -0.00173624
Ti       1.44312505       1.10508324      24.38758084       0.00146325       0.00097799       0.00614911
Ti       4.42886403       1.10508725      24.38759301      -0.00137389       0.00096238       0.00608754
Ti       2.93601536       5.87490971      25.65711294       0.00009967       0.00508618      -0.00231342
Ti       0.00003214       5.74423963      25.65128928      -0.00003069       0.00549771      -0.00356054
Al       0.00003579       2.86652465      26.24520672      -0.00014663      -0.00034822      -0.00933688
Ti       2.93602355       2.86874089      26.27564976       0.00010284       0.00039512      -0.00463246
Ti       4.43185976       0.71878628      27.36882484      -0.00098295       0.00240146      -0.00847382
Ti       1.44021303       0.71880239      27.36882753       0.00084175       0.00255723      -0.00871020
Ti       4.39179052       4.71870504      27.87579324      -0.00014952       0.00541526      -0.00262301
Ti       1.48027615       4.71871776      27.87577718       0.00013447       0.00539910      -0.00283529
Ti       0.00003646       2.55772378      29.04658234      -0.00008831       0.00043329      -0.00835458
Ti       2.93602107       2.56755936      29.12781672       0.00017397       0.00052507      -0.00940540
Ti       0.00002532       6.59436172      29.58645109      -0.00012780      -0.00095375      -0.00421859
Ti       2.93603276       6.56215311      29.60550174       0.00016808      -0.00090621      -0.00160669
Ti       1.45476723       4.43552980      30.76439320       0.00152397       0.01056859      -0.01114934
Ti       4.41729209       4.43552724      30.76447599      -0.00153001       0.01061311      -0.01134908
Ti       4.41812567       1.48281865      31.27442290      -0.00126575      -0.00596528      -0.00981860
Ti       1.45392425       1.48280989      31.27445621       0.00114286      -0.00611052      -0.00969646
Ti       0.00004156       6.29512000      32.55084701      -0.00012414      -0.00691952      -0.01040017
Ti       2.93601462       6.29002624      32.55974838       0.00012097      -0.00514855      -0.00826453
Ti       2.93597962       3.34229891      32.90104606       0.00026000       0.01147105      -0.00638168
Ti       0.00006597       3.33677227      32.92763572      -0.00031554       0.00881595      -0.00399785
Ti       1.46947483       1.20689031      34.11105207       0.00136201      -0.00495730       0.01489356
Ti       4.40256335       1.20686588      34.11095299      -0.00139577      -0.00508088       0.01512964
Ti       4.40512065       4.99771404      34.49234464      -0.00236061       0.00653349       0.01592361
Ti       1.46692900       4.99768765      34.49243856       0.00236815       0.00666262       0.01593670
