64
Lattice="5.088765 0.0 0.0 0.0 9.739025 0.0 0.0 0.0 38.303587" Properties=species:S:1:pos:R:3:forces:R:3 job_name=Segregation-1sol-addvac-T2-V-V-52-d-6.97 top_level=Segregation-1sol-addvac solute=V energy=-484.53293082 stress_kbar_3x3="_JSON [[-11.74578944, 2.46531089, 0.08007149], [2.46531089, -13.00766167, 0.3173762], [0.0800715, 0.31737623, -1.10087037]]" pbc="T T T"
Ti       2.81739582       9.44559357       8.65571030       0.00212807      -0.00197998       0.00759013
Ti       0.27291174       4.57716067       8.65605252       0.00237885      -0.00466943       0.00586576
Ti       3.43969394       6.54021671       9.20303444      -0.00112684       0.00221546      -0.00100661
Ti       0.89614098       1.67107450       9.20369746      -0.00128733      -0.00157879      -0.00137703
Ti       0.12176054       8.83073263       9.80330661       0.00282721       0.00277094       0.00036507
Ti       2.66762640       3.96167133       9.80326817       0.00106650       0.00285567      -0.00382451
Ti       1.12844350       6.24256572      10.55682384      -0.00436555      -0.00612658      -0.00428279
Ti       3.67255639       1.37367792      10.55727516      -0.00326827      -0.01147425      -0.00572392
Ti       2.80334942       8.43384689      11.15404462       0.00172688       0.00392069      -0.00457626
Ti       0.25967037       3.56502892      11.15529886       0.00111072       0.00224851      -0.00902090
Ti       1.06665258       0.89674105      11.82684828      -0.00578376      -0.00334801      -0.00081196
Ti       3.61046780       5.76556047      11.82545996      -0.00486381       0.00499343       0.00089592
Ti       0.23332707       7.97854925      12.61200833       0.00316846       0.00045323       0.00547083
Ti       2.77807983       3.11034012      12.61013735       0.00364588      -0.00250030       0.00342947
Ti       1.04832651       5.30707583      13.29033358      -0.00398552       0.00303800       0.00503174
Ti       3.59268941       0.43902111      13.28984715      -0.00339495      -0.00795462       0.00359063
Ti       2.75757038       7.49783138      13.97171115       0.00052878       0.00022642      -0.00057730
Ti       0.21353772       2.63014067      13.96949629       0.00077400      -0.00410455       0.00031069
Ti       3.64460781       4.87520179      14.68477662      -0.00208997       0.00242518       0.00088907
Ti       1.09995589       0.00617152      14.68691014      -0.00236586      -0.00692141      -0.00354075
Ti       2.76327545       2.21189089      15.36232364      -0.00083715      -0.00380614      -0.00167533
Ti       0.21948718       7.07988203      15.36927905      -0.00033454      -0.00082477      -0.00352709
Ti       3.65383588       9.31177877      16.02667721       0.00161693      -0.00209648      -0.00436954
Ti       1.11094688       4.44394355      16.02694107       0.00086925       0.00403203      -0.00031767
Ti       0.23383111       1.80001826      16.76744055       0.00169010      -0.00392706      -0.00384968
Ti       2.77913735       6.66866204      16.77603432       0.00113723      -0.00142543      -0.00437272
Ti       3.59254472       3.94926763      17.40092269       0.00201053       0.00049819      -0.00284869
Ti       1.04274896       8.82046435      17.40880072       0.00195277      -0.00400353      -0.00534118
Ti       2.70998023       1.19475867      18.13142157      -0.00151774      -0.00495769       0.00296587
Ti       0.16312032       6.06357736      18.14826757      -0.00137353      -0.00365533       0.00199393
Ti       1.29589565       3.40819773      18.88541413       0.00165789      -0.00036792       0.00096869
Ti       3.83777838       8.27617787      18.89657379       0.00164037      -0.00317083       0.00078697
Ti       0.01278073       0.91315437      19.49950461       0.00100118      -0.00121780       0.00050778
Ti       2.56853889       5.78311099      19.50259574       0.00052935       0.00008850       0.00070447
Ti       3.83876580       3.43493834      20.12119230       0.00197358       0.00319101       0.00136271
Ti       1.29047683       8.30659216      20.12803033       0.00195542       0.00050534       0.00247779
Ti       2.36330668       1.26536227      20.88637495      -0.00145756       0.00248140       0.00438545
Ti       4.90726858       6.14865508      20.90813987      -0.00005127       0.00486012       0.00307045
Ti       1.49723633       3.98002290      21.59393374       0.00073050       0.00828398       0.00294413
Ti       4.03566668       8.85017789      21.61242276      -0.00134814       0.00755596       0.00392327
Ti       4.86673761       1.82327604      22.25727879       0.00289883       0.00310640       0.00526430
Ti       2.31768076       6.70305073      22.27265902       0.00153575       0.00469249       0.00281653
Ti       1.44123318       9.32078355      22.96724128       0.00086019      -0.00132730       0.00117543
Ti       3.98163896       4.46554329      22.95668672       0.00058562       0.00340525       0.00373473
Ti       2.35504099       2.21854766      23.64134587      -0.00454332       0.00378325       0.00108130
Ti       4.88476375       7.11079918      23.69402687      -0.00137901       0.00009935       0.00044975
Ti       1.46655500       4.87009414      24.31564113       0.00084436       0.00487359       0.00492947
Ti       3.99862171       9.72418514      24.38201892       0.00098068      -0.00071584       0.00310603
Ti       4.85121828       2.66881350      24.99248665      -0.00409943       0.00507022       0.00262474
Ti       2.28386956       7.52103444      25.03801310      -0.00134127      -0.00166896       0.00210248
Ti       1.42518594       0.45962866      25.70018706       0.00515573       0.00265872      -0.00216486
Ti       4.03233020       5.35557456      25.73081434       0.00135794       0.00141353       0.00074990
V        4.86098846       7.98889469      26.46934581       0.00029924      -0.00134970      -0.00023338
Ti       2.30935081       3.12206399      26.47020287      -0.00386859       0.00309762       0.00426134
Ti       4.06137468       0.90914638      27.10253005       0.00044446       0.00669101       0.00412029
Ti       1.43487643       5.79695921      27.13500932      -0.00174730       0.00117086       0.00209554
Ti       2.39749599       8.46189555      27.68370466       0.00225173      -0.00534937      -0.00603217
Ti       4.92628031       3.55731040      27.74317100      -0.00303466      -0.00331423       0.00398363
Ti       3.90770039       6.17634036      28.41973718       0.00300306       0.00023912      -0.01265299
Ti       1.40167200       1.31287476      28.48991902       0.00371101      -0.00107367      -0.00174605
Ti       4.74502033       8.72511263      28.96529659      -0.00474175       0.00208493      -0.00384328
Ti       2.15128584       3.89105206      29.08104322      -0.00330107      -0.00128783      -0.00217520
Ti       1.53550467       6.80225194      29.60911964       0.00510227      -0.00308831      -0.00408495
Ti       4.07776481       1.88661118      29.62889686       0.00035689       0.00025572      -0.00804951
