100
Lattice="4.4265 -2.555641 0.0 3.767997 6.526363 -0.031456 0.0 0.0 61.781652" Properties=species:S:1:pos:R:3:forces:R:3 job_name=Segregation-1sol-addvac-CSL13-Al-Al-53-d-1.39 top_level=Segregation-1sol-addvac solute=Al energy=-761.51062423 stress_kbar_3x3="_JSON [[-25.96404657, -3.14066402, 2.58323981], [-3.140664, -26.97336432, 2.36765045], [2.58323984, 2.36765048, 0.31582193]]" pbc="T T T"
Ti       2.65447729      -0.58339360       8.84071171      -0.01060251      -0.00411275      -0.00300205
Ti       5.96301340       1.85793216       8.82538776       0.00201444      -0.01117999      -0.00418101
Ti       5.41212897      -0.82188213       9.80645278       0.00284556      -0.00086172      -0.00260690
Ti       4.37753169       4.12596413       9.79109291      -0.00175214       0.00187426      -0.00282901
Ti       7.09150923       3.86285845      10.44769534       0.00113326      -0.00535625       0.01543086
Ti       3.82725643       1.39615302      10.46373906      -0.00588653      -0.00185214       0.01509083
Ti       1.78850935      -0.41084233      11.39448522       0.00184473      -0.00319752       0.01518947
Ti       6.54576229       1.19372931      11.37863849      -0.00345299      -0.00072571       0.01608124
Ti       4.97728076       3.45555763      12.37315617      -0.00033025      -0.00306596       0.01026619
Ti       4.53242130      -0.63871259      12.38912402      -0.00298114      -0.00155734       0.01010898
Ti       2.88526074       1.61293350      13.19016809      -0.00052525      -0.00205294       0.00044576
Ti       3.32437334       5.71011009      13.17445263      -0.00201239      -0.00156905       0.00019866
Ti       2.30844474      -1.04482030      14.16746034       0.00051620      -0.00366141      -0.00085445
Ti       5.73770199       1.32682227      14.15188374      -0.00349247      -0.00148590      -0.00073325
Ti       4.01956484       3.65974734      15.03896819      -0.00298645      -0.00549796      -0.00077967
Ti       0.76219799       1.19004738      15.05460852      -0.00305268      -0.00502343      -0.00099928
Ti       3.48324830       0.92930848      15.85277191      -0.00066861       0.00090718       0.00201681
Ti       6.86095737       3.33024658      15.83727360       0.00097445       0.00013746       0.00180692
Ti       5.24739274       5.63180006      16.89604484      -0.00257691      -0.00371475      -0.00318806
Ti       6.28156697       0.68310808      16.91243578      -0.00218276      -0.00393975      -0.00359314
Ti       4.72184920       2.90892305      17.67008925      -0.00592172      -0.00813071      -0.00200955
Ti       4.18675155      -1.13520580      17.68498666      -0.00474991      -0.00858774      -0.00170530
Ti       2.68847116       1.06623358      18.55984350       0.00021573      -0.00244943       0.00110681
Ti       7.37679433       2.70953695      18.54482589      -0.00169089      -0.00155944       0.00200615
Ti       5.85161416       4.99350193      19.70071955       0.00474235       0.00084172       0.00359100
Ti       5.42671662       0.88760283      19.71823428      -0.00132569       0.00531210       0.00440247
Ti       3.72834045       3.15198545      20.25919881      -0.00169581      -0.00140290      -0.00217527
Ti       0.46769577       0.68560038      20.27363180      -0.00182021      -0.00259125      -0.00234084
Ti       3.04385503       0.62522785      21.30385594       0.00370481       0.00177596      -0.01039904
Ti       6.81460908       2.79851175      21.28828608      -0.00230951       0.00492869      -0.01373451
Ti       5.00049807       5.32339839      22.54672870      -0.00113254      -0.01510590      -0.00554893
Ti       1.70975786       2.87145088      22.56674966      -0.01311410      -0.01058627      -0.00564503
Ti       4.47063306       2.53476578      22.84848403       0.00337134       0.01660185      -0.00044327
Ti       3.98728078      -1.53709071      22.86276077       0.01314213       0.01463373       0.00084221
Ti       2.77366839       0.67011604      24.06440873      -0.00234319      -0.00330854       0.00726853
Ti       6.99003921       2.59025894      24.04922616      -0.00475549      -0.00150472       0.01419917
Ti       5.77113118       4.80014469      25.38153785       0.00531538       0.00557397       0.00065997
Ti       5.29289576       0.72507835      25.40129426       0.00044673       0.01015974      -0.00034841
Ti       3.62966032       2.94512784      25.48648572      -0.01033803      -0.00460983       0.00172963
Ti       0.33300740       0.50364434      25.50171386      -0.00251568      -0.01592067      -0.00080014
Ti       2.80589951       0.58450019      26.82031731      -0.00037192       0.00167742       0.00241061
Ti       6.89469331       2.58367431      26.81256162      -0.00760328       0.00103512      -0.00788644
Ti       4.92793996       5.22005895      28.22765784      -0.00150737       0.00197780       0.00384516
Ti       1.64761135       2.79705379      28.22573314      -0.00680148       0.00461759       0.00300632
Ti       4.40383606       2.45139931      28.14350644      -0.00251629      -0.00789024       0.00023184
Ti       3.94676398      -1.64210824      28.15495229      -0.00302032       0.00127310       0.00093603
Ti       2.81954157       0.50412168      29.56977315       0.00546506      -0.00740018      -0.00787045
Ti       6.81348589       2.61592608      29.56191906       0.00140359      -0.00276796      -0.00608555
Ti       3.49646027       2.86866413      30.68816183      -0.00643047       0.00727956       0.00670678
Ti       5.25207018       0.77615404      31.03909665      -0.00618361      -0.00796615      -0.00303608
Ti       4.74847236      -1.99793577      30.77838925       0.00200516       0.01104438       0.00103527
Ti       5.62838375       4.73299707      31.13636645       0.00457515       0.00168131       0.00035258
Al       7.22212783       2.43923976      32.28204631       0.00704669      -0.00197361      -0.01698015
Ti       2.67145225       0.72957418      32.33668530      -0.00197420       0.00533952       0.00653281
Ti       3.92290844      -1.51132214      33.29640726       0.00513776      -0.00048352       0.00171633
Ti       4.54674085       2.72974010      33.23185918       0.00171364       0.00421835      -0.00160378
Ti       6.09435610       0.33582377      33.88058472      -0.00426390       0.00380574       0.00223116
Ti       5.03441984       5.45918929      33.94609171      -0.00043226       0.00575150       0.00105832
Ti       6.74999000       2.91879424      34.98344671       0.00052092       0.00630135      -0.00298702
Ti       3.36301820       0.61399338      35.04302370       0.00011073       0.00715486      -0.00070855
Ti       0.54750797       0.92129598      35.82163607      -0.00006987       0.00214931      -0.00395916
Ti       3.81304762       3.26290915      35.85380886       0.00382774       0.00760885      -0.00458865
Ti       5.58746948       0.98983699      36.76128949      -0.00105672       0.00414085      -0.00357747
Ti       5.85769995       5.08717244      36.69239366       0.00879915       0.00341849      -0.00298963
Ti       3.19133237       5.36571074      37.64001255       0.00225118       0.00276951      -0.00848895
Ti       2.65609563       1.21836947      37.68717087       0.00394494       0.00491992      -0.00660032
Ti       4.33601508      -1.00784977      38.46215542       0.00099072       0.00587122      -0.00499865
Ti       4.72341906       3.12662857      38.47484238       0.00003359       0.00158088      -0.00880023
Ti       1.58604938      -0.79598402      39.58600120       0.00558147       0.00445367       0.00536550
Ti       6.34031190       0.76958045      39.58587029       0.00428250       0.00573895       0.00444272
Ti       3.64289663       1.05770321      40.24050906       0.00474904       0.00750085      -0.00135287
Ti       6.88400616       3.48051226      40.22307734       0.00725917       0.00516146      -0.00197528
Ti       5.02255089      -1.16567095      41.17036348      -0.00544176       0.00618136       0.00566561
Ti       4.27275216       3.63655862      41.16404901       0.01095679      -0.00339047       0.00781134
Ti       5.67190369       1.33490704      42.45783988      -0.00570810      -0.00460285       0.00238993
Ti       2.34659355      -1.10023225      42.46933480       0.00140409      -0.01039552       0.00041019
Ti       2.87812242       1.67204096      42.78315111       0.00369470       0.00834045      -0.00083603
Ti       3.37398120       5.75033304      42.77780826       0.00944378       0.00637279      -0.00059193
Ti       4.78653230      -0.92840372      43.95490624       0.00633191      -0.00619159      -0.00086045
Ti       4.57789574       3.53579164      43.94171693      -0.00494140      -0.00070009      -0.00125403
Ti       2.06111768       3.45160437      45.32153944       0.00460039       0.00809225       0.01544579
Ti       1.53552182      -0.59496562      45.33921036       0.00778970       0.00792029       0.01490742
Ti       3.72793137       1.24433115      45.36690743      -0.00620419      -0.00477522       0.00410825
Ti       6.98493475       3.71628170      45.35091547       0.00057882      -0.01123729       0.00413850
Ti       4.81898925      -0.92632883      46.74715905      -0.00062536      -0.00325317       0.01776098
Ti       4.55401733       3.57812773      46.73135745       0.00242894      -0.00449503       0.01769155
Ti       5.67373603       1.38222371      48.18811241      -0.00590836      -0.00333440      -0.00320661
Ti       2.35332040      -1.05102764      48.20395869       0.00097079      -0.00829965      -0.00375436
Ti       3.36114502       5.80029636      47.94178435       0.00543855       0.00607578       0.00567900
Ti       2.90952371       1.70976049      47.95777377       0.00381118       0.00654349       0.00528604
Ti       4.31973523       3.62738817      49.49525407       0.00202524      -0.00330953      -0.01305388
Ti       4.97106465      -1.09843254      49.51170043      -0.00208259      -0.00082887      -0.01279155
Ti       1.98816722       3.34302613      51.19187109      -0.00339189       0.00209523      -0.00292119
Ti       1.46316450      -0.70377091      51.20620772       0.00435075      -0.00181960      -0.00226505
Ti       3.57125647       1.10464556      50.56833934       0.00199831       0.00082730      -0.01597849
Ti       6.92739564       3.51618809      50.55200031       0.00021689       0.00183023      -0.01687652
Ti       4.35823963      -1.00912049      52.13995532      -0.00457922      -0.00014596      -0.00461415
Ti       4.70371717       3.14508529      52.12434828       0.00207914      -0.00449945      -0.00516197
Ti       3.18472903       5.29874052      52.98513826      -0.00049748       0.00040015      -0.00734667
Ti       2.55868994       1.30949147      53.00125757      -0.00025744      -0.00152523      -0.00968848
