64
Lattice="5.088765 0.0 0.0 0.0 9.739025 0.0 0.0 0.0 38.303587" Properties=species:S:1:pos:R:3:forces:R:3 job_name=Segregation-1sol-addvac-T2-Al-Al-40-d-2.77 top_level=Segregation-1sol-addvac solute=Al energy=-480.71902603 stress_kbar_3x3="_JSON [[-13.20918183, 1.70532531, 0.48909092], [1.70532526, -13.50272312, -0.59431652], [0.48909093, -0.59431648, -2.77953703]]" pbc="T T T"
Ti       0.27607293       4.57846488       8.63691456       0.00273454       0.00397465       0.02756138
Ti       2.81868107       9.45067506       8.63918847       0.00542437       0.00246499       0.03218365
Ti       3.44165808       6.54594070       9.18951489      -0.00708088       0.00173323       0.02220883
Ti       0.89372011       1.67826730       9.18746902      -0.00574916      -0.00124872       0.01948526
Ti       0.12603749       8.83550640       9.78435136      -0.01370831       0.00299040       0.01991780
Ti       2.67098587       3.96413602       9.79044289      -0.01173444       0.00327082       0.02014516
Ti       1.12417120       6.24891902      10.53876060      -0.00474815      -0.01564864       0.01265336
Ti       3.67008186       1.38068378      10.54703539      -0.00623772      -0.02122985       0.00894321
Ti       0.25980914       3.56949267      11.14120176       0.01399252       0.01759654       0.01398462
Ti       2.80250315       8.43959214      11.14382726       0.01372464       0.01499848       0.00724645
Ti       1.06031312       0.90108652      11.81059886       0.00486508       0.01033875       0.00530697
Ti       3.60309368       5.76758657      11.81643202       0.00484035       0.01206673       0.00638388
Ti       0.22976474       7.98372175      12.58686865      -0.01037636      -0.00837924       0.00067577
Ti       2.77613342       3.11318572      12.60410031      -0.01072393      -0.00580508       0.00246685
Ti       1.04667934       5.31374275      13.27167357      -0.00312952      -0.00138247      -0.00518482
Ti       3.59332368       0.44856223      13.28475433      -0.00207693      -0.00218835      -0.00477867
Ti       0.21621064       2.63696146      13.95893000       0.00301253       0.00571387       0.00336403
Ti       2.75721655       7.51291438      13.95800423       0.00182777       0.00376779       0.00168929
Ti       1.08918485       0.01320549      14.65874535       0.00073179       0.00490922       0.00404585
Ti       3.63696243       4.88181258      14.67470716       0.00148806       0.00423249       0.00246793
Ti       0.21331990       7.09486013      15.34474934      -0.00335456       0.00367345       0.00344845
Ti       2.76163823       2.21674179      15.38030992      -0.00443603       0.00544961       0.00502300
Ti       1.10033460       4.44705795      16.01053862      -0.00145024       0.00118850       0.00344535
Ti       3.64808191       9.32474135      16.03913195      -0.00042693       0.00328028       0.00358269
Ti       0.23839381       1.80450326      16.76104441       0.00011951       0.00109957       0.00208424
Ti       2.75494990       6.68732243      16.76056327      -0.00147773       0.00043963       0.00173621
Ti       1.06426815       8.86369849      17.38460400      -0.00159577       0.00396941       0.00337105
Ti       3.59702927       3.97421094      17.41294584       0.00042397       0.00253351       0.00089239
Ti       0.16572957       6.12054352      18.08744951       0.00039897       0.00398743       0.00461630
Ti       2.74931451       1.26974094      18.21949121      -0.00268109       0.00540328       0.00106922
Ti       1.24170902       3.48384923      18.83183525      -0.00208654       0.00080059       0.00165704
Ti       3.83662837       8.31918031      18.88510613       0.00130241       0.00407796       0.00311356
Ti       2.52636152       5.79511034      19.50808541      -0.00028523      -0.00027530       0.00343526
Ti       0.05710224       0.92944423      19.52105246      -0.00051693      -0.00354964       0.00515025
Ti       1.28090147       8.28272047      20.08230136      -0.00777660       0.00387420      -0.00012577
Ti       3.78159107       3.40941906      20.15945387       0.00124832      -0.00336698       0.00227927
Ti       4.91262451       6.07017032      20.85965748       0.00254836      -0.00387729      -0.00027076
Ti       2.35278483       1.21252505      20.96532948       0.00114330      -0.00174662      -0.00309818
Ti       4.09312744       8.81729337      21.58867747       0.00362080      -0.00209053      -0.00233958
Ti       1.39332518       3.99482044      21.59568707      -0.00161094      -0.00530115       0.00030262
Ti       2.31174637       6.71544280      22.23003454      -0.00062730      -0.00284924       0.00160313
Al       4.84500357       1.76433035      22.25988254       0.00099496      -0.00164518      -0.00713267
Ti       3.93655528       4.40456922      22.91525570      -0.00032678       0.00050795      -0.00330130
Ti       1.38636420       9.32900547      23.03655126      -0.00396269      -0.00019296      -0.00344240
Ti       4.87632922       7.05807459      23.62792845       0.00303918      -0.00236976      -0.00306999
Ti       2.28633901       2.21396442      23.63207896       0.00192465      -0.00198142      -0.00504738
Ti       3.96534457       9.71485708      24.30644543       0.00122904      -0.00201731      -0.00201050
Ti       1.47900561       4.88144077      24.33389388       0.00315115       0.00024503      -0.00050740
Ti       4.87933120       2.61951123      24.98606294      -0.00139790      -0.00496969       0.00331418
Ti       2.32061434       7.50262525      25.01713899      -0.00085474      -0.01005602       0.00164212
Ti       4.04721928       5.29891274      25.71381104      -0.00450518      -0.00964707      -0.00228711
Ti       1.51995533       0.43210855      25.75542879      -0.00364534      -0.00896214      -0.00451144
Ti       4.84763766       7.97434022      26.43645955       0.00305983       0.00167356      -0.00882256
Ti       2.31813357       3.09724134      26.44847618       0.00244479       0.00838295      -0.00617029
Ti       4.07631613       0.91353862      27.17016417       0.01587968       0.00905871      -0.02192212
Ti       1.52095983       5.78871663      27.17365872       0.01542745       0.00296776      -0.02499975
Ti       4.93791226       3.57287577      27.74349287       0.00416432      -0.01127827      -0.01921756
Ti       2.38992564       8.44522144      27.77339095       0.00549859      -0.01133802      -0.02170328
Ti       3.95891821       6.17141441      28.49581707      -0.00308545      -0.00473745      -0.02366069
Ti       1.41312294       1.31222380      28.52581867      -0.00267864      -0.00047460      -0.02148435
Ti       4.73372486       8.74518490      29.08366976      -0.00226583      -0.00008669      -0.01893758
Ti       2.17574361       3.88484165      29.08277803      -0.00200215      -0.00175645      -0.02090664
Ti       4.10105884       1.92279820      29.66616953       0.00415039       0.00015273      -0.01502337
Ti       1.56651732       6.78497029      29.67899441       0.00420463      -0.00037197      -0.01254043
