64
Lattice="5.872 0.0 0.0 0.0 6.890708 0.0 0.0 0.0 43.394398" Properties=species:S:1:pos:R:3:forces:R:3 job_name=Segregation-1sol-addvac-T1g-Al-Al-39-d-3.19 top_level=Segregation-1sol-addvac solute=Al energy=-482.99642809 stress_kbar_3x3="_JSON [[-5.98917521, 0.00050698, -0.00021127], [0.00050699, -15.46074212, 0.79074491], [-0.00021126, 0.79074492, -1.28247305]]" pbc="T T T"
Ti       0.00002442       3.39519160       8.90694376      -0.00005754      -0.00489887       0.01615916
Ti       2.93583830       3.39491252       8.90703639       0.00014683      -0.00420098       0.01552517
Ti       2.93609144       6.48984179       9.30813071       0.00009832      -0.00060875       0.01042980
Ti       5.87174415       6.48987549       9.30829356      -0.00007532      -0.00069635       0.00972289
Ti       4.40386579       1.74740582      10.50236989       0.00019640       0.01054405       0.00373135
Ti       1.46804801       1.74814724      10.50378661      -0.00019535       0.01096876       0.00331893
Ti       4.40389257       4.68025393      10.85481333       0.00003797      -0.00985805       0.00068877
Ti       1.46791357       4.68025159      10.85512880      -0.00008913      -0.00973566       0.00047969
Ti       5.87139637       6.77111738      12.12355727      -0.00010534       0.00094276      -0.00645940
Ti       2.93658413       6.77110336      12.12401529       0.00004199       0.00089934      -0.00679661
Ti       2.93553258       2.83849780      12.66954086       0.00027361      -0.00299028      -0.00571389
Ti       0.00040687       2.83858605      12.66949424      -0.00015221      -0.00334275      -0.00605411
Ti       1.46798995       4.98756721      13.80910820       0.00015515      -0.00558093      -0.00198593
Ti       4.40401829       4.98420818      13.80921919      -0.00032409      -0.00534667      -0.00204979
Ti       4.40396402       0.92752284      14.34780496      -0.00037765       0.00369954       0.00401250
Ti       1.46800972       0.92876203      14.34904889       0.00030268       0.00403451       0.00392176
Ti       2.93578615       3.07312187      15.49119481       0.00026112      -0.00331272       0.00184222
Ti       0.00022116       3.07312576      15.49113632      -0.00026144      -0.00295243       0.00230860
Ti       0.00263652       5.98902719      16.06505277      -0.00021474      -0.00182551       0.00956276
Ti       2.93337326       5.98896311      16.06515978       0.00026603      -0.00151756       0.00908292
Ti       4.40403744       1.24296399      17.25336254      -0.00005762      -0.00122805       0.01092785
Ti       1.46800110       1.25185607      17.25672905       0.00005535      -0.00243220       0.01094625
Ti       4.40399362       4.08803551      17.72550955       0.00009568       0.00073204       0.00942462
Ti       1.46804206       4.08658832      17.74101353      -0.00014772       0.00138564       0.00994656
Ti       2.92265215       6.19012934      18.86761510      -0.00018955      -0.00185907       0.00151668
Ti       0.01340422       6.19014962      18.86754137       0.00012971      -0.00205524       0.00149824
Ti       2.94321522       2.38922332      19.46477493       0.00025828      -0.00057579      -0.00300815
Ti       5.86481464       2.38926561      19.46484586      -0.00017863      -0.00081271      -0.00310480
Ti       4.40401572       4.48442118      20.78546228       0.00000980      -0.00289727      -0.00455101
Ti       1.46805200       4.48778137      20.82463043      -0.00004071      -0.00374212      -0.00342340
Ti       4.40402355       0.43298310      20.94408031      -0.00001113       0.00154275      -0.00824628
Ti       1.46803566       0.46115796      20.97460431      -0.00000235       0.00113913      -0.00997569
Ti       5.83497909       2.39619960      22.27469181      -0.00179415      -0.00213230       0.00309811
Ti       2.97310345       2.39623575      22.27466099       0.00174067      -0.00242586       0.00285475
Ti       0.02458287       5.95106831      22.84634864      -0.00202246       0.00048368       0.00328575
Ti       2.91146270       5.95103490      22.84628403       0.00205237       0.00070211       0.00317772
Al       1.46802624       3.92079868      24.02973488      -0.00020694      -0.00048758      -0.00313885
Ti       4.40409254       3.86299569      24.07621598       0.00021545      -0.00057818      -0.00238206
Ti       4.40407920       1.01624494      24.37863108      -0.00016997       0.00049928      -0.00047162
Ti       1.46792388       1.11639342      24.37685782       0.00038286       0.00091682       0.00133674
Ti       2.90246813       5.78925555      25.62365342      -0.00135580       0.00146702      -0.00754411
Ti       0.03358603       5.78923538      25.62373753       0.00132785       0.00121873      -0.00773366
Ti       2.91631912       2.84346955      26.18675468       0.00136204       0.00113335      -0.00823705
Ti       0.01978617       2.84346038      26.18677040      -0.00149034       0.00131304      -0.00849069
Ti       1.46806015       0.72542499      27.31709265      -0.00003799       0.00059497      -0.00543024
Ti       4.40403608       0.69873183      27.35705527       0.00006966       0.00103061      -0.00524021
Ti       4.40403203       4.72872853      27.83897168      -0.00000006      -0.00002909       0.00016527
Ti       1.46805136       4.76599428      27.90432672       0.00005174       0.00304857       0.00215370
Ti       2.93581314       2.57826141      29.01970923      -0.00061401       0.00519710      -0.00358914
Ti       0.00026382       2.57830648      29.01967246       0.00057131       0.00505486      -0.00346130
Ti       0.00953279       6.60903696      29.59500259      -0.00093599      -0.00075042       0.00024333
Ti       2.92653723       6.60905815      29.59499025       0.00094700      -0.00067611       0.00040599
Ti       4.40401659       4.46154115      30.71031529       0.00006444      -0.00304395       0.01249114
Ti       1.46803313       4.46633599      30.73932452      -0.00005834      -0.00288393       0.01012003
Ti       4.40403994       1.52831951      31.24943130      -0.00001757       0.00548624       0.00933084
Ti       1.46802777       1.52694830      31.25324599      -0.00000239       0.00618976       0.00670792
Ti       2.94039365       6.32188935      32.52355789       0.00000817      -0.00416326      -0.00134353
Ti       5.86767055       6.32189060      32.52350379      -0.00004714      -0.00412608      -0.00100263
Ti       5.85778088       3.38291126      32.89759264       0.00039686       0.00564365      -0.00702528
Ti       2.95024617       3.38295024      32.89760488      -0.00029670       0.00566931      -0.00695658
Ti       4.40413776       1.22837344      34.08493257      -0.00017061       0.01201960      -0.01293480
Ti       1.46792394       1.22567829      34.07634093       0.00014601       0.01283909      -0.01096881
Ti       1.46789684       5.04456238      34.47178064      -0.00000251      -0.00638542      -0.01551842
Ti       4.40412387       5.04247594      34.49106873       0.00003816      -0.00624417      -0.01758001
