100
Lattice="4.4265 -2.555641 0.0 3.767997 6.526363 -0.031456 0.0 0.0 61.781652" Properties=species:S:1:pos:R:3:forces:R:3 job_name=Segregation-1sol-addvac-CSL13-V-V-51-d-0.00 top_level=Segregation-1sol-addvac solute=V energy=-765.27977974 stress_kbar_3x3="_JSON [[-28.57914743, -2.66904327, 0.61640344], [-2.66904328, -30.06004094, 0.86339287], [0.61640345, 0.86339286, -2.06438446]]" pbc="T T T"
Ti       5.97471658       1.87539852       8.78505202      -0.00079713      -0.00333992       0.00138854
Ti       2.65688878      -0.55981361       8.80121449      -0.00143399      -0.00173468       0.00081877
Ti       5.41295268      -0.79452257       9.76923326       0.00195977      -0.00109842      -0.00014286
Ti       4.39372865       4.14395382       9.75392551      -0.00170290       0.00405143      -0.00222879
Ti       7.10240250       3.88480568      10.40732048       0.00195044       0.00016275      -0.00762611
Ti       3.83366945       1.42228150      10.42324908      -0.00218335      -0.00125290      -0.00818363
Ti       6.55016748       1.22339666      11.33937324      -0.00168384       0.00130368      -0.00710090
Ti       1.80467269      -0.38762801      11.35465766       0.00307447      -0.00088130      -0.00777982
Ti       4.54883133      -0.60576364      12.35413254      -0.00891089      -0.01319262      -0.00350703
Ti       4.98925668       3.49112379      12.33788072      -0.00722228      -0.01446723      -0.00226029
Ti       3.33460495       5.74013215      13.13167278       0.00253736       0.00875952       0.00698238
Ti       2.89733624       1.64145470      13.14726562       0.00533484       0.00643499       0.00704238
Ti       2.32131080      -1.01008377      14.12817710      -0.00263589      -0.00545606       0.00364231
Ti       5.75256120       1.35989528      14.11261568      -0.00411844      -0.00552303       0.00476424
Ti       4.03180630       3.69316896      14.99999270       0.00017690       0.00196898       0.00804467
Ti       0.77510281       1.22157553      15.01732734       0.00310311       0.00211501       0.00599060
Ti       3.49913174       0.96498169      15.81620155      -0.00587353      -0.00594885      -0.00057695
Ti       6.87349550       3.36789407      15.80119980      -0.00171483      -0.00803890      -0.00175216
Ti       6.29479674       0.71800440      16.87756729       0.00342037       0.00025846      -0.00532194
Ti       1.49370862      -0.86165624      16.89259340      -0.00098674       0.00134051      -0.00474087
Ti       4.73576927       2.94239136      17.63439477      -0.00432128      -0.00041942      -0.00421132
Ti       4.20051461      -1.09921131      17.65250986       0.00215312      -0.00216975      -0.00638730
Ti       2.70411441       1.10272337      18.52492870       0.00055197       0.00191321      -0.00290860
Ti       7.38982151       2.74893724      18.50906827       0.00043045      -0.00226544      -0.00249649
Ti       5.86847543       5.03772078      19.66140101       0.00158097       0.00072874       0.00127774
Ti       5.44872276       0.92878120      19.67899668       0.00025705       0.00292613       0.00084962
Ti       3.75233910       3.19839021      20.22382697      -0.00071358      -0.00109178       0.00463056
Ti       0.48760093       0.73154901      20.24136844       0.00052068       0.00102205       0.00508278
Ti       3.07124571       0.67004091      21.26713166       0.00117611       0.00122368       0.00030147
Ti       6.83367869       2.84843769      21.25290567      -0.00416133      -0.00030561       0.00055312
Ti       5.03256858       5.37010126      22.50449887      -0.00155885      -0.00515557       0.00285059
Ti       1.72892368       2.92663637      22.52191099      -0.00200086      -0.00230035       0.00140754
Ti       4.49712970       2.59289491      22.82887284       0.00274694       0.00866103       0.00341490
Ti       4.01735252      -1.48123121      22.84562922       0.00792468       0.00654938       0.00525736
Ti       2.79706874       0.73689103      24.03723724       0.00152230      -0.00191915       0.00046594
Ti       7.02867568       2.64014648      24.02243020      -0.00132564      -0.00200383       0.00155400
Ti       5.80921958       4.86516376      25.33060414       0.00230166       0.00193608      -0.00067755
Ti       5.33001223       0.78875748      25.35373302       0.00167474       0.00377092      -0.00366987
Ti       3.67296185       3.01340536      25.48201130      -0.00355731      -0.00216821      -0.00876209
Ti       0.36841874       0.56699541      25.49298386      -0.00151845      -0.00787067      -0.00771154
Ti       2.86299644       0.66740950      26.79390014      -0.00065066      -0.00205293      -0.00574488
Ti       6.92280966       2.65634642      26.78282609      -0.00212805       0.00368452      -0.00623245
Ti       4.99226269       5.29829302      28.14646868      -0.00345475      -0.00657830      -0.00259282
Ti       1.68688408       2.86096488      28.20350224      -0.00500668      -0.00672242      -0.00710295
Ti       3.99464510      -1.56116780      28.14544624       0.00534071       0.00221367       0.00251089
Ti       4.44875670       2.52897055      28.16274651       0.00287282       0.01143359       0.00008042
Ti       2.88492528       0.62093807      29.51968274      -0.00566144      -0.00255228       0.00315774
Ti       6.89272243       2.64568971      29.53104065       0.00350499       0.00309171       0.00287933
Ti       4.77922842      -1.88253182      30.81361414      -0.00310723      -0.00613819       0.00008245
Ti       3.59454245       2.93843983      30.82392536      -0.00159953       0.00259507       0.00101366
V        5.31288954       0.78914119      30.92394191       0.00164096       0.00453618       0.00226855
Ti       5.70428606       4.84578498      30.93989186       0.00370876       0.00366702       0.00423950
Ti       6.94652833       2.56164634      32.22124536       0.00284343       0.00412594      -0.00285444
Ti       2.78190554       0.64612616      32.26645093      -0.00012204      -0.00525505      -0.00254472
Ti       4.45358679       2.48984935      33.43480804       0.00263676       0.01096043      -0.00105217
Ti       3.97054344      -1.57215233      33.42889849       0.00197547       0.00077159      -0.00301089
Ti       1.67246789       2.84146242      33.67257728       0.00010243       0.00071862       0.00805111
Ti       4.97696865       5.25870802      33.75309282       0.00175833       0.00281149       0.00508110
Ti       6.74668184       2.72670015      35.02217969      -0.00332453       0.00673421       0.00513387
Ti       3.02697656       0.53414201      35.04719047       0.00368187      -0.00234551       0.00519109
Ti       0.41853375       0.63510058      35.98821476       0.00252246       0.00878327      -0.00648051
Ti       3.68336025       3.06769362      35.99837339       0.00681052       0.00821730      -0.00022260
Ti       5.41202959       0.78340794      36.61265844       0.00155386       0.00365240       0.00050866
Ti       5.74145299       4.93030759      36.60981763       0.00377618       0.00066904       0.00049819
Ti       7.38954893       2.58745356      37.75117428       0.00115370       0.00501195      -0.00030430
Ti       2.57136975       1.02175774      37.76760635       0.00531723       0.00519368       0.00238545
Ti       4.16539265      -1.19688686      38.56042306       0.00281680       0.00698888      -0.00499970
Ti       4.67330491       2.87343812      38.55500623       0.00829407       0.00599304      -0.00262412
Ti       6.20244214       0.62984812      39.49322759       0.00147713       0.00166740       0.00196315
Ti       5.23575250       5.54558094      39.48805184      -0.00160591       0.00239371       0.00216970
Ti       6.76395093       3.31219674      40.39145184       0.00413364       0.00072696      -0.00697034
Ti       3.51042268       0.83895057      40.40508778       0.00192725       0.00869246      -0.00728585
Ti       5.08837550      -1.36083076      41.21132929      -0.00100577      -0.00145815      -0.00398308
Ti       4.06282749       3.58027173      41.19893159       0.00026109      -0.00080139      -0.00526695
Ti       5.67910532       1.25983414      42.37708241       0.00286686       0.00423442       0.00607837
Ti       2.27353274      -1.12681203      42.39759898       0.00225108       0.00400270       0.00610735
Ti       3.33965451       5.67674222      42.93896707       0.00080498      -0.00227968       0.00152938
Ti       2.84012035       1.61159140      42.95563909      -0.00071738      -0.00141654      -0.00026484
Ti       4.69425937      -0.88024629      43.94426146      -0.00146952      -0.00141027       0.00403544
Ti       4.67952031       3.47659958      43.92934236      -0.00351092       0.00056192       0.00495056
Ti       2.08185739       3.47372188      45.28910693      -0.00114889      -0.00290383       0.00347764
Ti       1.56130821      -0.57583261      45.30553464      -0.00282818      -0.00473171       0.00420925
Ti       7.00179716       3.74331846      45.47409439       0.00332978       0.00081654       0.00858441
Ti       3.76105115       1.26306322      45.49013967      -0.00037311       0.00154254       0.00874830
Ti       4.54862928       3.64168173      46.75908300      -0.00207699      -0.00169267      -0.00159087
Ti       4.89980860      -0.91246988      46.77367644      -0.00277711      -0.00217050      -0.00101220
Ti       5.68698207       1.43742159      48.18065038       0.00383366       0.00308455      -0.00085084
Ti       2.42140194      -1.02785436      48.19652043       0.00052419       0.00423643      -0.00162279
Ti       2.94216029       1.77691676      48.06093563      -0.00107956      -0.01356245      -0.00790690
Ti       3.42896416       5.84624018      48.04516021      -0.01001633      -0.00787208      -0.00810685
Ti       4.41488314       3.67242123      49.55302216      -0.00262880      -0.00137631       0.00301138
Ti       4.99277735      -1.01252404      49.56789780       0.00007036      -0.00289217       0.00354616
Ti       1.52875132      -0.61898081      51.25174066      -0.00371243       0.00276253       0.00370867
Ti       2.06009943       3.42601901      51.23473140       0.00451049      -0.00327311       0.00372689
Ti       3.63167760       1.19560220      50.65323128       0.00172609       0.00062909       0.00902139
Ti       7.00690847       3.59840122      50.63791471      -0.00019824       0.00269358       0.00871109
Ti       4.76398342       3.23993444      52.19213798      -0.00629072      -0.00084608      -0.00416190
Ti       4.44333541      -0.92527058      52.20828870       0.00337181      -0.00621812      -0.00561761
Ti       2.62223176       1.40570033      53.07363950      -0.00806450      -0.00893895      -0.00248259
Ti       3.26668518       5.38337019      53.05827265      -0.00481726      -0.01093258      -0.00204441
