52
Lattice="5.088765 0.0 0.0 0.0 5.495746 0.0 0.0 0.0 48.722931" Properties=species:S:1:pos:R:3:forces:R:3 job_name=Segregation-1sol-addvac-C1-Al-Al-26-d-0.00 top_level=Segregation-1sol-addvac solute=Al energy=-392.17823673 stress_kbar_3x3="_JSON [[-14.37935079, 1.84078539, 1.812333], [1.84078539, -14.85571386, 0.43175634], [1.812333, 0.43175634, -0.47620806]]" pbc="T T T"
Ti       2.11143919       0.58028891       8.89979554      -0.01029388      -0.00491899       0.01346403
Ti       4.73406082       1.52418345       9.79076818      -0.00946076      -0.00715931       0.00760198
Ti       0.26997874       4.26162324       9.39022045      -0.01187072      -0.00374016       0.00683720
Ti       3.45035880       4.93590844      11.01920225      -0.00796193      -0.00696205      -0.00132286
Ti       2.27199877       2.53169649      10.50932871      -0.01500023      -0.00296772      -0.00471277
Ti       0.95232580       0.26263034      11.66641178      -0.00993645      -0.00097486      -0.00621036
Ti       0.15281058       3.02207326      12.06307157      -0.00382747      -0.00341977      -0.00247880
Ti       2.51112732       4.01921601      13.37496613      -0.00810011       0.00209390      -0.00351130
Ti       3.25724583       1.26410901      13.08649988      -0.00562609      -0.00008187      -0.00589413
Ti       0.95414141       1.95656847      14.53228577      -0.00319638      -0.00281598       0.00334480
Ti       5.06262139       4.80050945      14.29341182      -0.00792512       0.00312213       0.00077574
Ti       2.70430058       5.48428957      15.70359184       0.00186479       0.00101626       0.01120908
Ti       3.51213768       2.71487052      15.62333371       0.00250092      -0.00379063       0.00586654
Ti       0.07446988       0.82965361      16.94883314       0.00051193      -0.00145476       0.00827623
Ti       0.87254479       3.58916365      16.84481306      -0.00160873       0.00067712       0.00402058
Ti       3.46959346       4.32675791      18.16973037       0.00152755       0.00097508       0.00294059
Ti       2.60204072       1.61697184      18.09315686       0.00165932      -0.00123483      -0.00125834
Ti       0.91776784       5.11113093      19.34374907       0.00136976       0.00021937      -0.00632951
Ti       0.11454325       2.34214631      19.37148591       0.00048760      -0.00022948      -0.00224439
Ti       2.63912968       3.16026581      20.60113336       0.00359933      -0.00003313      -0.00668684
Ti       3.39166799       0.42402852      20.58597211       0.00090508      -0.00047520      -0.00667880
Ti       0.92742839       1.23183626      21.85183360       0.00247528      -0.00102878       0.00236595
Ti       0.07379784       3.93537402      21.80007292       0.00107908       0.00203035      -0.00065653
Ti       3.48926157       1.86809294      22.96846545       0.00527556      -0.00528162       0.00282078
Ti       2.70962503       4.58562048      23.00681856       0.00591560       0.00316889       0.00041192
Ti       0.75771823       2.79479748      24.36202038      -0.00102617       0.00153598      -0.00038009
Al       0.10547280       0.03140564      24.37237302      -0.00173394       0.00034875       0.00298350
Ti       2.58596748       4.69780557      25.69305936      -0.00067792       0.00959119       0.00573572
Ti       3.32686194       1.94937241      25.74268570      -0.00055261      -0.00173437       0.00178068
Ti       5.05335485       3.92562824      26.88701528      -0.00039410       0.00406908       0.00153777
Ti       0.78048013       1.23015635      26.93116431      -0.00323055       0.00116953       0.00245793
Ti       3.27118306       0.44741206      28.10224260      -0.00134284       0.00504753       0.00040890
Ti       2.48517597       3.20891484      28.14462996      -0.00110684       0.00230414       0.00206154
Ti       4.98762536       2.38602320      29.35961775      -0.00022619       0.00080473       0.00136231
Ti       0.68979216       5.14667583      29.37555445      -0.00106159       0.00310805      -0.00032068
Ti       2.45908560       1.60871526      30.53752299      -0.00037501       0.00203136      -0.00297698
Ti       3.31142681       4.37894732      30.63574644      -0.00083682       0.00477391      -0.00054575
Ti       0.75447044       3.59608598      31.75779925       0.00079041       0.00309991      -0.00616085
Ti       5.04946784       0.86876434      31.89990847       0.00159511       0.00294532      -0.00343400
Ti       3.19739573       2.74984314      33.01344131      -0.00004597       0.00108002      -0.01173252
Ti       2.40161769       5.47576086      33.10171853      -0.00074691      -0.00002305      -0.00485722
Ti       4.97011036       4.70725166      34.18404277       0.00243534       0.00149559      -0.00626092
Ti       0.86960971       2.05653941      34.43859647       0.00749267       0.00024945       0.00140148
Ti       3.42424007       1.28065935      35.33522605       0.00824200       0.00196986       0.00389906
Ti       2.68108720       4.02401682      35.64897593       0.00627195       0.00623454       0.00418748
Ti       4.98469139       3.00729925      37.06248605       0.00219203      -0.00271257       0.00436014
Ti       0.68074917       0.27151305      36.65671262       0.00321643       0.00139142       0.00415665
Ti       2.48789577       2.17379762      37.69937887       0.00666476      -0.01150222       0.00066251
Ti       3.66733497       5.27150688      38.22651221       0.01640330       0.00563919      -0.00166702
Ti       1.20523731       4.26179306      38.93014797       0.00281550      -0.00151377      -0.00295261
Ti       0.58853981       1.50408086      39.33464634       0.00719858      -0.00177416      -0.00712783
Ti       3.82653012       3.31086941      39.82407759       0.01367548      -0.00636336      -0.01052996
