52
Lattice="4.6568 0.0 0.0 0.0 7.770572 0.0 0.0 0.0 41.044546" Properties=species:S:1:pos:R:3:forces:R:3 job_name=Segregation-1sol-addvac-CSL7-V-V-29-d-2.09 top_level=Segregation-1sol-addvac solute=V energy=-394.1720595 stress_kbar_3x3="_JSON [[-16.08158788, 0.77054271, -0.70221412], [0.77054269, -17.9853504, 0.50361148], [-0.70221409, 0.50361146, -1.84992838]]" pbc="T T T"
Ti       2.32971656       7.23731064       8.70179360       0.00215229       0.00279480       0.01673479
Ti       0.01080147       5.34483361       8.94955729       0.00319381       0.00193704       0.01116732
Ti       2.33407058       2.24456616       9.46986991       0.00249116      -0.01467620       0.00717588
Ti       0.00822135       0.53407303       9.81574186       0.00228649      -0.00306683      -0.00169646
Ti       2.33880690       4.95837617      10.43473898       0.00322192      -0.00358256      -0.00039816
Ti       0.00926798       3.36753554      10.75475249       0.00263607      -0.00360677      -0.00354886
Ti       2.34262241       0.08196726      11.36204252       0.00208412       0.00696451      -0.00707211
Ti       0.01686340       6.11993086      11.60227925       0.00191167       0.00075540       0.00394457
Ti       2.34142901       2.76267162      12.28650442       0.00219476       0.00237126      -0.00219463
Ti       0.01560772       1.09924434      12.65277275       0.00169601      -0.00447725       0.00254268
Ti       2.34260704       5.56167232      13.19303946       0.00210773       0.00109381       0.00407769
Ti       0.01461587       3.89763365      13.58937353       0.00178228       0.00303633       0.01287181
Ti       2.34700051       0.56228402      14.23526200       0.00196645      -0.01044991       0.01120436
Ti       0.02895935       6.64848299      14.47454664       0.00095542      -0.00389986       0.00841951
Ti       2.34422371       3.31522417      15.16559864       0.00059655       0.00079936       0.01214590
Ti       0.02904705       1.67325830      15.52427761       0.00046108      -0.00145454       0.00649146
Ti       2.36803172       6.08416790      16.01334724       0.00200451      -0.00413656       0.00384763
Ti       4.63709077       4.43188421      16.49441550       0.00226742       0.00327662       0.00608682
Ti       2.38180118       1.09091838      17.11600840       0.00080535      -0.00148069       0.00998437
Ti       0.05615974       7.19182480      17.26641781       0.00022741      -0.00267174       0.00640298
Ti       2.24295089       3.80066555      18.05027513      -0.00459923      -0.00215661       0.00018644
Ti       0.12582951       2.14746348      18.46205948       0.00058794       0.00255260      -0.00003142
Ti       2.32542444       6.58683833      18.73923657      -0.00364833       0.00682222      -0.00137211
Ti       4.17022584       4.77899068      19.41217353       0.00591028       0.00258417       0.00375556
Ti       0.35994185       7.65464462      20.07583026      -0.00186884      -0.00838737       0.00001335
Ti       2.68079703       1.63751600      20.08422786      -0.00064941      -0.00162185       0.00009874
Ti       1.33306859       4.81335352      20.79381533      -0.00692313      -0.00402353      -0.00267845
Ti       3.17446991       6.50056208      21.46031787       0.00555531       0.00259349       0.00389290
Ti       0.55670464       2.25686739      21.60756464      -0.00022286       0.00556377      -0.00004192
V        3.17569574       3.77955995      22.07820978       0.00230966       0.00060090      -0.00238658
Ti       0.69371434       7.29927484      22.85274711      -0.00211018      -0.00130639      -0.00414837
Ti       2.97465156       1.16035653      22.95378991      -0.00186929       0.00125744      -0.00314428
Ti       0.72502211       4.52580280      23.55021187      -0.00179578       0.00243678      -0.00093086
Ti       3.01404893       6.16055475      24.09130481      -0.00067548       0.00025249      -0.00483286
Ti       0.66696127       1.75181347      24.56622016      -0.00255545       0.00433275      -0.00421938
Ti       3.03569768       3.38579612      24.88114843      -0.00039790       0.00089512      -0.00493229
Ti       0.69480079       6.70575380      25.62964317      -0.00112077      -0.00014556      -0.00487473
Ti       3.01722459       0.62613919      25.85447736      -0.00199115      -0.00141311      -0.01097557
Ti       0.70478713       3.95147142      26.47215630      -0.00154714       0.00294073      -0.01061506
Ti       3.03672809       5.59623488      26.87740409      -0.00103888      -0.00657624      -0.01460170
Ti       0.69372978       1.18691382      27.46502343      -0.00152595       0.00355542      -0.01578527
Ti       3.03024050       2.84806903      27.77277826      -0.00179954       0.00471870      -0.00454986
Ti       0.70240512       6.12583330      28.44211274      -0.00137694      -0.00054482      -0.00463440
Ti       3.02932261       0.04006559      28.73080306      -0.00162466       0.00197245       0.00173947
Ti       0.70023227       3.40313214      29.37398645      -0.00175193       0.00412459      -0.00689533
Ti       3.03178463       5.11062884      29.71709878      -0.00163800       0.01095965       0.00422720
Ti       0.70312749       0.64493098      30.28258072      -0.00178038      -0.00039143       0.00570459
Ti       3.03173452       2.24394309      30.55764481      -0.00116660      -0.00068796      -0.00042562
Ti       0.70545539       5.55505247      31.25074482      -0.00091334       0.00279303      -0.00252805
Ti       3.03296423       7.28546559      31.54965895      -0.00173937      -0.00793254      -0.00769881
Ti       0.70348760       2.64162383      32.05252016      -0.00177413       0.00101172      -0.00810290
Ti       3.03712687       4.51747236      32.36804920      -0.00130105       0.00369317      -0.00739996
