64
Lattice="5.872 0.0 0.0 0.0 6.890708 0.0 0.0 0.0 43.394398" Properties=species:S:1:pos:R:3:forces:R:3 job_name=Segregation-1sol-addvac-T1g-Al-Al-41-d-3.41 top_level=Segregation-1sol-addvac solute=Al energy=-482.89526808 stress_kbar_3x3="_JSON [[-5.17790072, 0.00038832, 0.00015263], [0.00038836, -14.99335901, 1.4511666], [0.0001526, 1.45116661, -1.26406384]]" pbc="T T T"
Ti      -0.00002945       3.37636919       8.91825665       0.00026098      -0.00428209       0.00396651
Ti       2.93609487       3.37637284       8.91831878      -0.00027720      -0.00450469       0.00393358
Ti       5.87099843       6.46556691       9.31658418       0.00014733      -0.00650819       0.00724892
Ti       2.93706466       6.46564676       9.31648293      -0.00000625      -0.00697670       0.00776432
Ti       4.40392588       1.72920934      10.51117637      -0.00083504      -0.00200316       0.00301646
Ti       1.46816802       1.73133683      10.51294175       0.00054365      -0.00338637       0.00202191
Ti       4.40393366       4.65167430      10.86818372      -0.00078276      -0.00006742       0.00185190
Ti       1.46813750       4.65365636      10.86813869       0.00073769      -0.00054256       0.00126792
Ti       2.93616015       6.74834181      12.12772343       0.00034559      -0.00904277       0.00617994
Ti       5.87184094       6.74849485      12.12782466      -0.00029619      -0.00905399       0.00693635
Ti       0.00082906       2.80788155      12.66985174      -0.00010490       0.00120598      -0.00174542
Ti       2.93521355       2.80788293      12.67001164       0.00017558       0.00131223      -0.00276118
Ti       4.40396041       4.95494814      13.81112937      -0.00004628       0.00116563      -0.00219390
Ti       1.46800534       4.95816671      13.81114390       0.00015154      -0.00032248      -0.00186858
Ti       4.40396243       0.89560271      14.34893374       0.00014036      -0.00308839       0.00384283
Ti       1.46807352       0.89604201      14.35633802      -0.00024417      -0.00214560       0.00469308
Ti       2.93662741       3.03648622      15.49520644      -0.00089422      -0.00618087       0.00903921
Ti       5.87136343       3.03651698      15.49505036       0.00095993      -0.00647353       0.00897922
Ti       2.93231777       5.95186638      16.06901333      -0.00058351       0.00443213       0.00223320
Ti       0.00373935       5.95185149      16.06896737       0.00033247       0.00435567       0.00244510
Ti       4.40402638       1.20444794      17.25257018      -0.00005009       0.00143582       0.00107122
Ti       1.46798152       1.21105913      17.26843658       0.00006363       0.00294245       0.00027560
Ti       4.40402364       4.04511020      17.72437195      -0.00005426      -0.00416833       0.00162117
Ti       1.46798951       4.04691454      17.74286072       0.00002098      -0.00370678       0.00084331
Ti       2.92668504       6.14393371      18.87793908      -0.00151082       0.00203645       0.00597674
Ti       0.00930601       6.14392059      18.87789812       0.00156967       0.00220056       0.00604075
Ti       5.84946608       2.35645318      19.46793501      -0.00086831      -0.00340617       0.00787031
Ti       2.95852506       2.35646754      19.46791678       0.00091106      -0.00333584       0.00790701
Ti       4.40398026       4.44731294      20.80883595       0.00001909      -0.00636842       0.00439870
Ti       1.46798564       4.43290974      20.87606648       0.00000162       0.00081985       0.00032190
Ti       4.40401213       0.39627167      20.93017298       0.00008756       0.00698924      -0.00053271
Ti       1.46799341       0.42421590      20.92242733      -0.00006746       0.00265594      -0.00199271
Ti       5.82185524       2.41080474      22.27995475      -0.00236410       0.00095479      -0.01002944
Ti       2.98618747       2.41082311      22.27994057       0.00232160       0.00086826      -0.01004699
Ti       0.06474526       6.03271275      22.87315463      -0.00166853      -0.00115995      -0.00469370
Ti       2.87129848       6.03269072      22.87313512       0.00157020      -0.00092013      -0.00487818
Ti       4.40394449       4.03357309      24.00361350       0.00029494      -0.00150926      -0.00501703
Ti       1.46803045       3.90046271      24.03395538      -0.00005712       0.00291510      -0.00322041
Al       1.46803221       1.11427535      24.38230736      -0.00014692      -0.00442354      -0.00643136
Ti       4.40401271       1.16178455      24.44088990       0.00004444       0.00111513      -0.00349205
Ti       0.02543491       5.88546221      25.63433874      -0.00033260       0.00074949      -0.00048179
Ti       2.91060325       5.88543183      25.63435220       0.00024855       0.00086069      -0.00039917
Ti       2.95536672       2.88333093      26.18098665      -0.00138198      -0.00121273      -0.00148077
Ti       5.85264518       2.88333604      26.18097490       0.00141118      -0.00130383      -0.00148273
Ti       1.46801204       0.74549540      27.33053047      -0.00004174       0.00197485      -0.00267796
Ti       4.40397919       0.74069537      27.40066108       0.00003767       0.00020000      -0.00165471
Ti       1.46799779       4.78281474      27.81688450       0.00007091       0.00038534      -0.00177975
Ti       4.40398755       4.77295046      27.84246895       0.00001466       0.00174926      -0.00310843
Ti       2.92360349       2.62037435      29.02162669      -0.00079019       0.00020408       0.00147119
Ti       0.01240143       2.62036608      29.02153452       0.00082512       0.00019030       0.00171178
Ti       0.01090389       6.61453512      29.58445860      -0.00101827       0.00482112       0.00052863
Ti       2.92512102       6.61451677      29.58443362       0.00105285       0.00488441       0.00062402
Ti       1.46798870       4.47784492      30.72219879      -0.00003279      -0.00130887       0.00193407
Ti       4.40399984       4.47484677      30.73567500       0.00006597       0.00159766       0.00153549
Ti       4.40400665       1.53248891      31.22645593       0.00005034       0.00088024      -0.00297843
Ti       1.46803027       1.53612262      31.23962302      -0.00007941       0.00261167       0.00037736
Ti       0.00039388       6.33714689      32.50626872       0.00061916       0.01599964      -0.00910239
Ti       2.93562382       6.33714473      32.50631719      -0.00059358       0.01600151      -0.00910552
Ti       2.93407618       3.37483439      32.87657576      -0.00103958      -0.00568974      -0.01576508
Ti       0.00194207       3.37483921      32.87665577       0.00109193      -0.00581754      -0.01589448
Ti       4.40403041       1.24059265      34.06443330      -0.00004430      -0.00377922      -0.00048235
Ti       1.46799146       1.24350641      34.07336669       0.00004620      -0.00438234      -0.00238910
Ti       4.40405633       5.03303707      34.44533604      -0.00007960       0.01272077       0.00475383
Ti       1.46797605       5.03408401      34.44904961       0.00005771       0.01383518       0.00300279
