64
Lattice="5.088765 0.0 0.0 0.0 9.739025 0.0 0.0 0.0 38.303587" Properties=species:S:1:pos:R:3:forces:R:3 job_name=Segregation-1sol-addvac-T2-Al-Al-52-d-6.97 top_level=Segregation-1sol-addvac solute=Al energy=-480.67579129 stress_kbar_3x3="_JSON [[-12.68695412, -1.22989027, 0.12299923], [-1.22989024, -13.6859589, 0.72484203], [0.12299924, 0.72484208, -2.21633294]]" pbc="T T T"
Ti       3.54806756       6.79723907       8.63018163       0.00274676      -0.00200425       0.00130677
Ti       1.00444279       1.92757686       8.63291469      -0.00041822       0.00225217       0.00648769
Ti       0.38176774       8.76821516       9.20757464      -0.00988923       0.00394371      -0.00093210
Ti       2.92809235       3.89286782       9.20922426      -0.00160697      -0.00471533      -0.00272094
Ti       3.70280799       1.32053848       9.78793977       0.00406916       0.00287251      -0.00356342
Ti       1.15614528       6.18590239       9.78748063       0.00010041      -0.00006190      -0.00130650
Ti       2.71911228       8.46107735      10.53960785       0.00475753      -0.00100506      -0.00072535
Ti       0.17409654       3.58998577      10.53945809       0.00226318      -0.00478401      -0.00609482
Ti       1.03033251       0.92683486      11.14146962      -0.00198909       0.00607013      -0.00580400
Ti       3.57555612       5.79308430      11.14128768       0.00039447      -0.00215077       0.00015662
Ti       0.25681898       7.97808546      11.84380892      -0.00320047       0.00034049       0.00950744
Ti       2.80105818       3.10881563      11.83825880      -0.00054174      -0.00201495      -0.00219155
Ti       3.60067574       0.43131284      12.58548941      -0.00023023      -0.00133855       0.00424294
Ti       1.05596820       5.30090764      12.58504518       0.00154896      -0.00162817       0.00444589
Ti       2.77553189       7.50472228      13.30727015       0.00015977      -0.00055882       0.00864958
Ti       0.23268680       2.63504855      13.30230740      -0.00077155       0.00114118       0.00100161
Ti       1.09272351       9.72029485      13.97035099       0.00045063      -0.00144318       0.00633032
Ti       3.63653948       4.85392467      13.97014986       0.00196845       0.00026067       0.00064101
Ti       2.74860956       2.20740865      14.64859486      -0.00139206      -0.00105822       0.00111100
Ti       0.20358468       7.07786273      14.65119992      -0.00233927       0.00160329       0.00067844
Ti       3.65410240       9.32366949      15.33219990       0.00126247      -0.00031952      -0.00416507
Ti       1.11017660       4.45899125      15.33373970      -0.00029713       0.00142074      -0.00001129
Ti       0.26058140       1.79372049      16.06384009      -0.00100346      -0.00178176      -0.00211878
Ti       2.80599736       6.66845664      16.06759519       0.00060112       0.00052532      -0.00368518
Ti       3.58809754       3.92565740      16.68953582      -0.00003698       0.00210432       0.00278146
Ti       1.04109470       8.79348684      16.69154231       0.00073342       0.00013191      -0.00773506
Ti       2.70350874       1.17552951      17.46180667       0.00066139       0.00032327      -0.00084996
Ti       0.15007591       6.03799491      17.47299347       0.00285580      -0.00273376      -0.00123403
Ti       1.30309924       3.39278521      18.18987583      -0.00257807      -0.00017059       0.00471378
Ti       3.85126179       8.26011630      18.20000776      -0.00177526      -0.00130892       0.00196617
Ti       2.58145758       5.77705531      18.77831518       0.00136674      -0.00283750       0.00378890
Ti       0.03417731       0.90551409      18.78342137       0.00139292       0.00261376       0.00020182
Ti       3.84498152       3.43744299      19.41907863      -0.00148714       0.00144150       0.00177885
Ti       1.30590716       8.30227341      19.42016612      -0.00066536      -0.00098716       0.00437791
Ti       2.34994105       1.28061387      20.21389542       0.00185006       0.00253797       0.00207720
Ti       4.89364791       6.15154843      20.23018750       0.00024898      -0.00168388       0.00091909
Ti       1.50785018       4.01631365      20.87692350       0.00117326      -0.00027706      -0.00256658
Ti       4.05743908       8.88301506      20.90063455      -0.00020620      -0.00135611       0.00476695
Ti       4.87957734       1.84909897      21.57727749       0.00155743      -0.00246946       0.00054258
Ti       2.35262786       6.71365025      21.57563133      -0.00215327       0.00169251      -0.00221898
Ti       1.45147090       9.33092203      22.25975776       0.00060820      -0.00108594      -0.00024037
Ti       3.97784346       4.45391999      22.29070354      -0.00022344       0.00002941      -0.00619182
Ti       2.31091042       2.22927261      22.94199394      -0.00123697      -0.00314767      -0.00447868
Ti       4.89041182       7.11881269      22.96599862       0.00089669       0.00245602      -0.00541444
Ti       1.43043872       4.86389822      23.60574972       0.00027395       0.00261389      -0.00595691
Ti       3.94755622       0.02877460      23.64988660      -0.00018592      -0.00221189      -0.00269523
Ti       2.27851282       7.50055343      24.37389125       0.00185311       0.00070516      -0.00518857
Ti       4.83412704       2.62310522      24.38210993       0.00099667      -0.00144888      -0.00237608
Ti       4.02654967       5.33992367      25.02570537       0.00001543       0.00549370       0.00185126
Ti       1.42055716       0.47104347      25.00268245      -0.00192811      -0.00264346      -0.00924060
Ti       2.31780199       3.13261018      25.71102145      -0.00166889      -0.00060244      -0.00034277
Al       4.82196951       7.99402218      25.70641979       0.00042302       0.00497342      -0.00401598
Ti       1.35521557       5.77160572      26.54157870      -0.00541364       0.00073152       0.00165021
Ti       4.00891445       0.89278819      26.49296528       0.00111505       0.00068035      -0.00237367
Ti       2.24806938       8.42496910      27.07873045       0.00249708      -0.00416183       0.00124199
Ti       4.80708287       3.54816604      27.14625707       0.00156873       0.00680643       0.01657323
Ti       3.88810351       6.23412055      27.69402629       0.00388551      -0.00905678       0.01200926
Ti       1.43475717       1.39919982      27.76275588      -0.00255472      -0.00344849       0.00266121
Ti       5.01805507       8.78659104      28.48471219      -0.00215997       0.00283034       0.00223218
Ti       2.41336362       3.96764923      28.52580268       0.00621107       0.00310248       0.00315328
Ti       4.20950118       1.63686599      29.11280989      -0.00459578       0.00470166       0.00025736
Ti       1.69467218       6.55553671      29.14569598      -0.00127040      -0.00653577       0.00083542
Ti       2.34400048       9.39415945      29.59118700       0.00279717       0.00209099      -0.00342775
Ti       4.81423630       4.60353940      29.62413658      -0.00148506       0.00454125      -0.01507295
