64
Lattice="5.872 0.0 0.0 0.0 6.890708 0.0 0.0 0.0 43.394398" Properties=species:S:1:pos:R:3:forces:R:3 job_name=Segregation-1sol-addvac-T1g-V-V-38-d-3.19 top_level=Segregation-1sol-addvac solute=V energy=-485.89841524 stress_kbar_3x3="_JSON [[-8.72839742, -0.00018734, 0.0004345], [-0.00018735, -11.07156462, -0.10303476], [0.00043447, -0.10303477, -3.80867053]]" pbc="T T T"
Ti       4.40397617       5.08953624       8.59879515      -0.00034067      -0.00021726       0.00159864
Ti       1.46811887       5.08953673       8.59987421       0.00046948      -0.00095319       0.00160474
Ti       5.87099896       3.05024430       9.50495941      -0.00042015      -0.00469034       0.01208387
Ti       2.93704149       3.05021635       9.50486584       0.00037519      -0.00415829       0.01222185
Ti       5.87181908       6.75906434      10.12866766      -0.00005302       0.00512536       0.01827801
Ti       2.93621139       6.75904884      10.12875146      -0.00002067       0.00463812       0.01722485
Ti       4.40405390       1.87569462      11.49041533       0.00042840       0.00355552       0.01222819
Ti       1.46792505       1.87607280      11.48993033      -0.00030591       0.00350991       0.01086878
Ti       1.46805727       4.77262442      11.54836366      -0.00009553       0.00165629       0.01477636
Ti       4.40396144       4.77200109      11.54809595       0.00002018       0.00237497       0.01475717
Ti       5.87177886       6.79975744      12.94198507      -0.00004277       0.00002387       0.01303821
Ti       2.93622268       6.79980865      12.94193492      -0.00001543      -0.00040615       0.01350019
Ti       2.93556997       3.00852232      13.51264063      -0.00003761       0.00184047       0.01552615
Ti       0.00045546       3.00845139      13.51269910      -0.00005850       0.00198505       0.01556603
Ti       4.40390541       5.13941781      14.67000431       0.00029121      -0.00592271       0.01113453
Ti       1.46806580       5.14007079      14.66850945      -0.00003716      -0.00584688       0.01067228
Ti       4.40395913       1.07602642      15.15169047       0.00034726      -0.00226654       0.00514414
Ti       1.46799257       1.07700580      15.15308300      -0.00017307      -0.00223345       0.00374827
Ti       2.93527867       3.24019712      16.32431958      -0.00033132       0.00294797       0.00883613
Ti       0.00074299       3.24010785      16.32441209       0.00024966       0.00304284       0.00858447
Ti       2.93529833       6.14122342      16.90999804       0.00006936       0.00625816      -0.00245718
Ti       0.00065724       6.14104191      16.90999615      -0.00009007       0.00695114      -0.00265929
Ti       4.40400939       1.42491192      18.07442521      -0.00016919      -0.00190286      -0.00699687
Ti       1.46799228       1.42606447      18.07720114       0.00007102      -0.00207282      -0.00818202
Ti       4.40391855       4.24734283      18.58559080       0.00016730      -0.00337220      -0.00335520
Ti       1.46804888       4.24333742      18.58936826      -0.00016305      -0.00368949      -0.00260732
Ti       2.93372641       6.40852687      19.74480838      -0.00002018      -0.00053379       0.00057390
Ti       0.00223761       6.40852935      19.74475992       0.00014570      -0.00050691       0.00067003
Ti       2.93769543       2.43052047      20.32327111       0.00020380       0.00138774       0.00071646
Ti       5.87031178       2.43057646      20.32320058      -0.00022089       0.00110531       0.00102209
Ti       1.46802994       4.57953514      21.54015667       0.00000230      -0.00192787      -0.00015398
Ti       4.40405014       4.59789656      21.51363845      -0.00011649       0.00075210      -0.00128659
Ti       4.40399161       0.53178709      21.98173236       0.00014580       0.00213351      -0.00240621
Ti       1.46798759       0.53434495      21.96174742      -0.00011905       0.00415273      -0.00249828
Ti       5.81305693       2.64362806      23.15754919      -0.00089368       0.00168146       0.00191958
Ti       2.99492461       2.64361267      23.15763897       0.00086998       0.00179964       0.00186977
Ti       5.84671535       5.73521573      23.70322738      -0.00041079      -0.00379995       0.00415294
Ti       2.96138080       5.73518049      23.70318735       0.00030844      -0.00406830       0.00468549
V        4.40405685       3.90274021      25.09716884      -0.00001339      -0.00082944      -0.00531591
Ti       1.46796869       3.78270150      25.09683508       0.00016382       0.00032157      -0.00102545
Ti       4.40403461       0.98789594      25.09559921      -0.00001908       0.00340338       0.00108866
Ti       1.46801832       0.90672778      25.09441649       0.00010068      -0.00048482      -0.00289560
Ti       5.84671921       5.73851459      26.49778073      -0.00117360      -0.00841153      -0.00035576
Ti       2.96133197       5.73848148      26.49774748       0.00107883      -0.00852171      -0.00081256
Ti       2.99728930       2.66059330      27.03328673      -0.00103701       0.00136252      -0.01079383
Ti       5.81073773       2.66051631      27.03327325       0.00108110       0.00142775      -0.01031943
Ti       4.40401698       0.54946803      28.20925206       0.00012567       0.00275013      -0.00978476
Ti       1.46803256       0.54974313      28.22458982      -0.00023968       0.00420769      -0.00495134
Ti       1.46804126       4.59550353      28.65027363      -0.00015863      -0.00051083      -0.01709237
Ti       4.40402267       4.61725348      28.67755994       0.00010831      -0.00278114      -0.01193929
Ti       2.93572313       2.43445368      29.87748884       0.00487602       0.00208604      -0.00757037
Ti       0.00031036       2.43452669      29.87744775      -0.00486188       0.00174680      -0.00760079
Ti       2.93251355       6.41385583      30.42284251      -0.00036180       0.00631974      -0.00853079
Ti       0.00349521       6.41381870      30.42280977       0.00044428       0.00660625      -0.00853718
Ti       4.40403908       4.25716602      31.62795308      -0.00019227      -0.01004044      -0.01577971
Ti       1.46804727       4.25232718      31.62427542       0.00009549      -0.00941600      -0.01342995
Ti       4.40395544       1.38477934      32.07161939      -0.00008155      -0.00261697      -0.01419104
Ti       1.46798989       1.38514394      32.07426040       0.00000059      -0.00676052      -0.01119282
Ti       2.93515989       6.18220897      33.21737495      -0.00073893      -0.00082894      -0.01435020
Ti       0.00088433       6.18225286      33.21740468       0.00064911      -0.00102068      -0.01463671
Ti       0.00433303       3.21695355      33.81109817      -0.00111503       0.00879357      -0.00150023
Ti       2.93166117       3.21696622      33.81113622       0.00116498       0.00856990      -0.00156283
Ti       1.46798694       1.10208796      34.80651190       0.00042366      -0.00133981      -0.00272261
Ti       4.40408496       1.10248808      34.80514787      -0.00034957      -0.00238567      -0.00859729
