64
Lattice="5.871999 0.0 0.0 0.0 6.890708 0.0 0.0 0.0 43.401158" Properties=species:S:1:pos:R:3:forces:R:3 job_name=Segregation-1sol-addvac-T1m-V-V-42-d-3.62 top_level=Segregation-1sol-addvac solute=V energy=-486.69129931 stress_kbar_3x3="_JSON [[-6.37167812, 2.178e-05, 4.206e-05], [2.179e-05, -18.04215368, 0.16443354], [4.204e-05, 0.16443352, -1.80433956]]" pbc="T T T"
Ti       1.46782486       5.00254338       8.91377809       0.00013476       0.00287197       0.00374632
Ti       4.40425978       5.00247463       8.91343114      -0.00010199       0.00295782       0.00384882
Ti       4.40425525       1.20885505       9.31375628       0.00017346      -0.00398272       0.00057550
Ti       1.46780535       1.20876288       9.31409571      -0.00011032      -0.00377829       0.00048145
Ti       2.93631683       3.36161572      10.50955875      -0.00046714       0.00457574      -0.01018565
Ti       5.87173710       3.36139441      10.51053648       0.00061712       0.00487303      -0.01032126
Ti       0.00000524       6.29101806      10.85685428       0.00015398      -0.00365451      -0.00569149
Ti       2.93611251       6.29071751      10.85658338      -0.00038410      -0.00327679      -0.00587823
Ti       1.46827414       1.48987362      12.12496228      -0.00043665      -0.00470454       0.00237649
Ti       4.40381535       1.48993774      12.12473898       0.00029072      -0.00480076       0.00258725
Ti       1.46874995       4.45803005      12.66997261       0.00016961       0.00187514       0.01054055
Ti       4.40327312       4.45792866      12.67007022      -0.00011158       0.00206340       0.01056376
Ti       2.93601897       6.60554524      13.82114376      -0.00020238       0.00037226       0.00998750
Ti       0.00004848       6.60457927      13.82168338       0.00012433       0.00086811       0.00998116
Ti       0.00006288       2.54961450      14.34734796      -0.00004210      -0.00242218       0.01311685
Ti       2.93598432       2.55002002      14.35068513      -0.00014502      -0.00124954       0.01283823
Ti       4.40511984       4.68652646      15.49535111       0.00028469      -0.00112185       0.00781653
Ti       1.46689782       4.68651112      15.49521506      -0.00019178      -0.00134334       0.00767704
Ti       4.40214460       0.74524821      16.07093659       0.00017438      -0.00051608       0.00411946
Ti       1.46992692       0.74521429      16.07090629      -0.00024159      -0.00034569       0.00371374
Ti       0.00003611       2.88618615      17.28201547      -0.00000163      -0.00230410      -0.00154798
Ti       2.93598898       2.88771309      17.29041978       0.00003055      -0.00256158      -0.00104439
Ti       0.00003441       5.72452235      17.70751183      -0.00013738       0.00154902       0.00210343
Ti       2.93600826       5.72644923      17.71113589       0.00009460       0.00071302       0.00265269
Ti       1.47285822       0.91889602      18.87164109      -0.00038532      -0.00000759       0.00233954
Ti       4.39913004       0.91887345      18.87173623       0.00050373       0.00015573       0.00192285
Ti       4.41724328       4.09398875      19.46884394       0.00030144       0.00213268       0.00167700
Ti       1.45479310       4.09394120      19.46881422      -0.00032907       0.00239004       0.00175054
Ti       2.93595822       2.14601725      20.86217425       0.00006746       0.00131704       0.00209958
Ti       5.87198446       6.16935338      20.87198800       0.00008816      -0.00188641       0.00510346
Ti       2.93599006       6.17516122      20.88566154       0.00002344      -0.00257577       0.00350246
Ti       0.00005263       2.13008902      20.89592165      -0.00009418       0.00197930       0.00387630
Ti       1.47579308       4.07700459      22.30805282      -0.00047063       0.00262701      -0.00137467
Ti       4.39616193       4.07697723      22.30804384       0.00062606       0.00259815      -0.00163408
Ti       1.52880249       0.95307690      22.88035885       0.00022420       0.00126629      -0.00449646
Ti       4.34324403       0.95307395      22.88027378      -0.00026411       0.00130165      -0.00468830
Ti       2.93600160       5.68040502      24.01191169      -0.00012748      -0.00331862      -0.00612120
Ti       0.00001320       5.77847355      24.02402050       0.00011931      -0.00092326      -0.00805956
Ti      -0.00001802       2.90015278      24.42442779       0.00017398       0.00058106      -0.00002736
V        2.93602115       2.87631147      24.42393983      -0.00011031       0.00027587      -0.00108932
Ti       4.36759276       0.75936599      25.64573955       0.00051686      -0.00266225       0.00190159
Ti       1.50443013       0.75939521      25.64581700      -0.00052224      -0.00268748       0.00169555
Ti       4.40860239       4.64531109      26.17257855      -0.00002110      -0.00124271      -0.00372708
Ti       1.46344442       4.64529919      26.17254868       0.00000625      -0.00135762      -0.00376018
Ti       2.93604755       2.51958508      27.32479632      -0.00006549       0.00272959       0.00091975
Ti       5.87198038       2.52479142      27.36711300       0.00018156       0.00291248       0.00108756
Ti       0.00003762       6.54458149      27.84207588       0.00004247       0.00085244      -0.00497875
Ti       2.93606819       6.54592958      27.85947692      -0.00016906       0.00039158      -0.00551285
Ti       4.40154475       4.39780482      29.02204021      -0.00062643       0.00169242      -0.00579786
Ti       1.47050641       4.39785399      29.02202645       0.00064586       0.00159382      -0.00576448
Ti       4.40006604       1.51802108      29.59403193       0.00045848      -0.00085896      -0.00904502
Ti       1.47200509       1.51799939      29.59397453      -0.00049586      -0.00080132      -0.00910035
Ti       0.00006940       6.27030507      30.73073644      -0.00008450       0.00338997      -0.01695854
Ti       2.93594458       6.27116318      30.73787551       0.00007874       0.00326410      -0.01793908
Ti       0.00004581       3.33834058      31.23927557       0.00005069      -0.00714446      -0.00426135
Ti       2.93601459       3.33606439      31.24713240      -0.00007444      -0.00630972      -0.00562008
Ti       1.46651680       1.24653713      32.51701010      -0.00106268      -0.00529385       0.00517238
Ti       4.40537180       1.24651000      32.51720163       0.00116572      -0.00524761       0.00479772
Ti       4.40889995       5.17944859      32.89749966       0.00165764       0.00851494      -0.00233130
Ti       1.46311589       5.17934094      32.89746393      -0.00156514       0.00852619      -0.00225000
Ti       0.00008761       6.84682238      34.46675631       0.00012235       0.00332176       0.00355761
Ti       2.93588706       6.84733128      34.46180955      -0.00017687       0.00350676       0.00415190
Ti       0.00002502       3.04416178      34.08051975       0.00011043      -0.00096969       0.00269313
Ti       2.93591295       3.04196758      34.08109903      -0.00019447      -0.00069109       0.00223117
