64
Lattice="5.872 0.0 0.0 0.0 6.890708 0.0 0.0 0.0 43.394398" Properties=species:S:1:pos:R:3:forces:R:3 job_name=Segregation-1sol-addvac-T1g-V-V-41-d-3.41 top_level=Segregation-1sol-addvac solute=V energy=-486.68595273 stress_kbar_3x3="_JSON [[-6.30032815, 0.00015136, -0.00017044], [0.00015137, -17.86423615, 1.3331739], [-0.00017044, 1.3331739, -1.67141567]]" pbc="T T T"
Ti       2.93614257       3.37249560       8.90728907      -0.00036627      -0.00565146      -0.00225896
Ti       5.87180316       3.37241575       8.90735917       0.00039086      -0.00549774      -0.00170703
Ti       2.93620984       6.45577813       9.31401388       0.00006051       0.00408969      -0.00939927
Ti       5.87164984       6.45569881       9.31415028       0.00004939       0.00415050      -0.00928301
Ti       1.46808171       1.72498935      10.50210512      -0.00024651      -0.00461858       0.00700087
Ti       4.40388451       1.72490118      10.50295901       0.00009916      -0.00458678       0.00737938
Ti       4.40391741       4.64813338      10.85924691       0.00007249      -0.01245884       0.01222280
Ti       1.46799984       4.64833523      10.85906389      -0.00022762      -0.01228526       0.01212549
Ti       0.00011632       6.74144400      12.11974598       0.00023282       0.00532358       0.01302277
Ti       2.93589702       6.74152839      12.11962613      -0.00021168       0.00506648       0.01350551
Ti       2.93516782       2.80320853      12.66861948       0.00012741      -0.00174121       0.00456952
Ti       0.00078643       2.80323533      12.66857650      -0.00011057      -0.00208440       0.00425995
Ti       1.46801981       4.95467859      13.80900650      -0.00009836       0.00010652      -0.00067696
Ti       4.40399088       4.95387521      13.80942642       0.00011945      -0.00082781       0.00006929
Ti       4.40403607       0.89129352      14.34723283      -0.00037883      -0.00276408      -0.00196460
Ti       1.46797379       0.89186855      14.35104402       0.00045368      -0.00417710      -0.00224184
Ti       2.93715204       3.03350714      15.49116967      -0.00041448      -0.00524969      -0.00442034
Ti       5.87091923       3.03342221      15.49106790       0.00032080      -0.00441435      -0.00373202
Ti       0.00160478       5.95722625      16.06653541      -0.00029323       0.00263454      -0.00077432
Ti       2.93444680       5.95723660      16.06663576       0.00027276       0.00284269      -0.00104800
Ti       4.40404211       1.21213484      17.26438845       0.00026568      -0.00483429       0.00911526
Ti       1.46803846       1.21276963      17.27326980      -0.00016340      -0.00393462       0.00964527
Ti       4.40405203       4.04403733      17.72407071       0.00038962       0.00351420       0.00967005
Ti       1.46804237       4.04574093      17.72712522      -0.00032219       0.00370280       0.00850338
Ti       0.00455812       6.13953631      18.87073718      -0.00016680       0.00372697      -0.00030389
Ti       2.93154979       6.13948620      18.87079826       0.00012196       0.00403016      -0.00027468
Ti       5.85910135       2.37429672      19.46633098      -0.00092134      -0.00608321       0.00248562
Ti       2.94902804       2.37434636      19.46627436       0.00082072      -0.00627128       0.00281517
Ti       4.40402349       4.45426140      20.85317853       0.00015278       0.00194149      -0.00391263
Ti       1.46802070       4.45928059      20.86389690      -0.00003736       0.00501233      -0.00326247
Ti       1.46805194       0.43012288      20.88410695      -0.00020767      -0.00447774       0.00019245
Ti       4.40404558       0.41467791      20.91610967       0.00028883      -0.00219213      -0.00209401
Ti       2.93223463       2.36581727      22.30126036      -0.00036190      -0.00063400       0.00492319
Ti       0.00381863       2.36577412      22.30128615       0.00039003      -0.00042796       0.00523086
Ti       2.87066771       6.08793015      22.87850030       0.00066478       0.00332523      -0.00803093
Ti       0.06542016       6.08791137      22.87860374      -0.00080176       0.00338151      -0.00861173
Ti       1.46807062       3.93153477      24.02161495      -0.00026324      -0.00587770       0.00720619
Ti       4.40403127       4.03206162      24.02904839       0.00025032      -0.00077814       0.01422703
V        1.46797241       1.12124582      24.40119853      -0.00011293       0.00122491       0.00779958
Ti       4.40402155       1.14667743      24.40218859       0.00009937       0.00552307       0.00882335
Ti       0.03673838       5.89898046      25.64309153       0.00239578      -0.00019423      -0.00073612
Ti       2.89929318       5.89899632      25.64305223      -0.00235735      -0.00025773      -0.00112887
Ti       5.86616257       2.86919630      26.16722843      -0.00120806      -0.00118058      -0.01099564
Ti       2.94188522       2.86923014      26.16719738       0.00128997      -0.00136239      -0.01088951
Ti       1.46803202       0.74825846      27.33073245       0.00005731      -0.00140364      -0.00911749
Ti       4.40400724       0.75241300      27.37144118      -0.00003169      -0.00169173      -0.01120084
Ti       4.40402107       4.76318941      27.83253409      -0.00016529       0.00118959      -0.00229808
Ti       1.46798945       4.76513179      27.84822402       0.00014375       0.00019153      -0.00161877
Ti       0.00232902       2.61702918      29.02475153       0.00137103      -0.00352429       0.00217867
Ti       2.93368185       2.61705819      29.02473750      -0.00144849      -0.00371563       0.00225097
Ti       0.00410441       6.61512743      29.58874291       0.00153593       0.00431859       0.00577323
Ti       2.93191184       6.61511057      29.58876925      -0.00153085       0.00444113       0.00587402
Ti       4.40400170       4.47601235      30.72669622      -0.00010912       0.01202642       0.00358927
Ti       1.46799739       4.47659107      30.73245496       0.00016949       0.01352985       0.00169646
Ti       4.40397131       1.53102347      31.23726910      -0.00007850       0.00194229      -0.01183846
Ti       1.46803418       1.52890461      31.24486903       0.00014020       0.00241330      -0.00905909
Ti       2.93703174       6.33026201      32.51988520       0.00027953       0.00804322      -0.01368791
Ti       5.87094802       6.33021961      32.51976367      -0.00040166       0.00845210      -0.01302445
Ti       5.86725756       3.37426246      32.88591019      -0.00094837      -0.00859067      -0.00969362
Ti       2.94074608       3.37432521      32.88588674       0.00070924      -0.00848389      -0.00930234
Ti       4.40395904       1.23905971      34.07616088      -0.00007056       0.00036802      -0.00341126
Ti       1.46794443       1.23698389      34.07668477       0.00027484       0.00098729      -0.00522420
Ti       4.40404025       5.03131855      34.46013651      -0.00036123       0.00784084       0.00112573
Ti       1.46796715       5.03225669      34.45574108       0.00040680       0.00693229      -0.00005799
