100
Lattice="4.4265 -2.555641 0.0 3.767997 6.526363 -0.031456 0.0 0.0 61.781652" Properties=species:S:1:pos:R:3:forces:R:3 job_name=Segregation-1sol-addvac-CSL13-V-V-53-d-1.39 top_level=Segregation-1sol-addvac solute=V energy=-765.46205482 stress_kbar_3x3="_JSON [[-27.03458081, -3.33699849, 0.98032202], [-3.33699849, -30.149638, 0.95142556], [0.980322, 0.95142552, -1.47187353]]" pbc="T T T"
Ti       2.67198927      -0.54275200       8.82170898      -0.01020316      -0.00430034      -0.01211995
Ti       5.97668847       1.89971144       8.80572980       0.00104222      -0.01043003      -0.01124526
Ti       5.42441239      -0.77871214       9.78344533      -0.00029816      -0.00446699       0.01071734
Ti       4.39610064       4.16608449       9.76728237      -0.00445680      -0.00343808       0.01148657
Ti       7.10616072       3.90411721      10.42500329      -0.00002117      -0.00474578       0.01736957
Ti       3.84240366       1.43781831      10.44065971      -0.00311921      -0.00134842       0.01738221
Ti       1.80408090      -0.37300915      11.36912742      -0.00600524      -0.00140996       0.00940735
Ti       6.55747671       1.23409545      11.35351021       0.00142289      -0.00515600       0.00888623
Ti       4.98885802       3.49472194      12.35133105      -0.00082911      -0.00277265      -0.00162486
Ti       4.54563957      -0.60018296      12.36644709      -0.00211727      -0.00239108      -0.00116126
Ti       3.33734896       5.74464598      13.15484810      -0.00092746      -0.00092935      -0.00642602
Ti       2.89282790       1.64988408      13.17024871      -0.00009844      -0.00065040      -0.00660455
Ti       2.31829581      -1.01282065      14.14470903       0.00133441       0.00017857      -0.00687826
Ti       5.74458480       1.35973089      14.12860793      -0.00030462       0.00139094      -0.00678630
Ti       4.02855754       3.69104659      15.02148228       0.00209103      -0.00060835      -0.00327604
Ti       0.76807158       1.22289086      15.03691184      -0.00142484       0.00169101      -0.00344078
Ti       6.86788679       3.36516332      15.81829882       0.00038500       0.00231715      -0.00092797
Ti       3.49224028       0.96362149      15.83408298       0.00202932       0.00171427      -0.00046252
Ti       6.28798765       0.72142519      16.88498134       0.00002309      -0.00012236       0.00135569
Ti       1.49155605      -0.86018319      16.90016028      -0.00011262      -0.00023466       0.00169832
Ti       4.73133321       2.94986397      17.65749229       0.00012121      -0.00015749       0.00252581
Ti       4.19918591      -1.09498888      17.67223580      -0.00015572       0.00064196       0.00240570
Ti       7.39577198       2.74975887      18.52388597      -0.00046900      -0.00184822       0.00093964
Ti       2.69363511       1.11328109      18.53937035      -0.00055260      -0.00183924       0.00084282
Ti       5.86136051       5.04550455      19.66443467      -0.00050442      -0.00244840       0.00222191
Ti       5.44752715       0.93333200      19.68026362      -0.00135981      -0.00219322       0.00162758
Ti       0.48669372       0.74029830      20.26814645      -0.00057783      -0.00104372       0.00024390
Ti       3.74758278       3.20848112      20.25380263      -0.00085968      -0.00044515      -0.00032718
Ti       3.07848376       0.66329130      21.27686822      -0.00179522      -0.00220463       0.00369976
Ti       6.81069703       2.85967501      21.25994377      -0.00085648      -0.00192675       0.00371107
Ti       5.01902090       5.36553496      22.50348011       0.00216725      -0.00163779       0.00498161
Ti       1.71864437       2.91968887      22.51823014      -0.00219332       0.00055652       0.00461567
Ti       4.48889237       2.58891621      22.85627150      -0.00096082      -0.00005430       0.00621948
Ti       4.00590342      -1.48227479      22.87129676      -0.00006395      -0.00137215       0.00629327
Ti       7.02401977       2.62482994      24.02944612      -0.00187448       0.00311741       0.00724430
Ti       2.76978024       0.73019613      24.04661427       0.00170198      -0.00036456       0.00719421
Ti       5.78876229       4.85149373      25.33161811       0.00514049       0.00194925      -0.00050806
Ti       5.31407245       0.77255456      25.34709878      -0.00143500       0.00503216       0.00050147
Ti       3.65425135       2.99754186      25.49953209      -0.00380136      -0.00166066      -0.00404762
Ti       0.34897996       0.55293719      25.51716125       0.00021741      -0.00308036      -0.00377887
Ti       2.85058403       0.63927786      26.80823514       0.00099695       0.00189733      -0.00498774
Ti       6.89860132       2.65021075      26.79045840      -0.00022715       0.00164429      -0.00685001
Ti       4.97492768       5.28819136      28.14775153       0.00093752      -0.00099340      -0.00066007
Ti       1.66735076       2.84885849      28.17472442      -0.00346106      -0.00172229      -0.00163998
Ti       4.42271209       2.52076732      28.17228676      -0.00122405       0.00192871      -0.00143137
Ti       3.96762959      -1.57267645      28.19429909       0.00250436       0.00130342       0.00035941
Ti       6.89455806       2.62814423      29.53120947      -0.00000051       0.00291873       0.00757255
Ti       2.82407788       0.62744737      29.54346723      -0.00016981      -0.00007308       0.00484662
Ti       3.59376180       2.99941970      30.85437630      -0.00572537       0.00072889       0.00366567
Ti       0.32564671       0.48646821      30.87106691      -0.00264957      -0.00240352       0.00522016
Ti       5.76504582       4.78039318      30.95833882       0.00373780       0.00007143       0.00105411
Ti       5.28421286       0.76256511      30.99675504       0.00001472       0.00356271       0.00167923
Ti       2.73402084       0.67285277      32.30309289      -0.00214764       0.00335506      -0.00604759
V        6.95622869       2.57325507      32.24195906       0.00139055       0.00259071      -0.00712771
Ti       3.90589604      -1.60578567      33.41516665       0.00648436       0.00074041      -0.01074198
Ti       4.49813918       2.54519380      33.38714833      -0.00088891       0.00708566      -0.00614401
Ti       1.66942788       2.86893484      33.74478307       0.00092338       0.00406646      -0.00363701
Ti       4.91473933       5.28288942      33.71254083       0.00107448       0.00699054      -0.00493781
Ti       3.08628850       0.50572677      35.04943124       0.00549279       0.00566966       0.00234178
Ti       6.75227970       2.76350148      35.02669118       0.00279228       0.00305638      -0.00004960
Ti       0.46712935       0.65920651      35.94583477       0.00586533       0.00979449       0.00012525
Ti       3.72072667       3.09471150      35.95622613       0.00161082       0.00193500       0.00516946
Ti       5.44906060       0.80484781      36.63425018       0.00220939       0.00485969       0.00690989
Ti       5.76389242       4.94931929      36.58963215       0.00190852       0.00452351       0.00369562
Ti       3.02400646       5.16410738      37.73349465       0.00127064       0.00232311       0.00197843
Ti       2.58583476       1.05964134      37.74487663       0.00291251       0.00202110      -0.00264725
Ti       4.71209331       2.91437150      38.51615786       0.00089005       0.00304304      -0.00146798
Ti       4.19899487      -1.15399859      38.52296064       0.00388331       0.00189295      -0.00227309
Ti       6.23393767       0.66167086      39.50472986       0.00247941       0.00129534      -0.00026764
Ti       5.27482189       5.58201449      39.49198572       0.00306475       0.00213444       0.00322511
Ti       3.54435060       0.87655561      40.36076259       0.00170294       0.00352798       0.00195447
Ti       6.79797711       3.34607932      40.35079625       0.00141026      -0.00004364       0.00307223
Ti       4.11307042       3.58797402      41.16716510       0.00183583       0.00176777       0.00368666
Ti       5.08406184      -1.32450594      41.18313740       0.00170589       0.00247154       0.00415713
Ti       2.29289137      -1.12499487      42.40206992       0.00271386       0.00156597       0.00862956
Ti       5.68282968       1.27144683      42.38176953       0.00192624       0.00244056       0.00667414
Ti       3.35630663       5.68578684      42.89594656       0.00196874       0.00302764      -0.00019711
Ti       2.85264754       1.62506642      42.90891560       0.00242354       0.00226881      -0.00129364
Ti       4.66118072       3.48408836      43.91875600      -0.00408961       0.00111496       0.00168689
Ti       4.72072988      -0.89981706      43.93401182       0.00380652      -0.00360218       0.00226304
Ti       2.08836195       3.45885928      45.28939277      -0.00080149       0.00041747      -0.00461870
Ti       1.55672473      -0.58477467      45.30451753       0.00034124      -0.00111223      -0.00317917
Ti       7.00589942       3.73124253      45.43438027       0.00277606      -0.00279101      -0.00990040
Ti       3.75904922       1.25501282      45.44944109      -0.00317793      -0.00040331      -0.01087347
Ti       4.55895001       3.62037423      46.74574625      -0.00019041      -0.00116495      -0.01163271
Ti       4.88541234      -0.91882857      46.76165792      -0.00203976      -0.00386726      -0.01130394
Ti       5.69542071       1.42058927      48.17721153       0.00182100      -0.00396789       0.00043581
Ti       2.41100421      -1.03315855      48.19338749      -0.00378041      -0.00082208      -0.00099192
Ti       3.41911040       5.83279445      48.00863486      -0.00258615      -0.00509238      -0.00963568
Ti       2.94418572       1.75686949      48.02247775      -0.00424973      -0.00618189      -0.00922151
Ti       4.39860605       3.66194955      49.53134264      -0.00374141       0.00231486      -0.00338705
Ti       5.00047336      -1.03638517      49.54813824       0.00475900      -0.00315125      -0.00470961
Ti       2.04776145       3.40395543      51.21511617      -0.00483384       0.00268648      -0.00662547
Ti       1.52144871      -0.64627352      51.23359723       0.00560472      -0.00230486      -0.00724438
Ti       6.99241396       3.57738364      50.60661027      -0.00253178      -0.00564147      -0.00679081
Ti       3.62606333       1.16693563      50.62076432      -0.00414553      -0.00418913      -0.00477841
Ti       4.75931490       3.20703573      52.16714090       0.00404313      -0.00595511       0.00817648
Ti       4.42430592      -0.94793463      52.18325788      -0.00695583       0.00176354       0.00992400
Ti       3.25305848       5.35307068      53.02998500      -0.00807376       0.00165421       0.00367994
Ti       2.60761362       1.37591018      53.04490365       0.00611032      -0.00628003       0.00115522
