64
Lattice="5.088765 0.0 0.0 0.0 9.739025 0.0 0.0 0.0 38.303587" Properties=species:S:1:pos:R:3:forces:R:3 job_name=Segregation-1sol-addvac-T2-Al-Al-36-d-1.39 top_level=Segregation-1sol-addvac solute=Al energy=-480.70364003 stress_kbar_3x3="_JSON [[-12.19309574, 3.6085289, 0.70671787], [3.6085289, -12.50483056, 1.34332275], [0.70671785, 1.34332274, -1.09662161]]" pbc="T T T"
Ti       0.25753845       4.54900763       8.65549466      -0.00745023      -0.01528987      -0.00910470
Ti       2.80525015       9.42286696       8.65302118      -0.00910447      -0.01065859      -0.00841169
Ti       0.87449277       1.64297588       9.21645511      -0.00301093      -0.00288525      -0.00375820
Ti       3.41673904       6.51222407       9.21266522      -0.00152774      -0.01139941      -0.00251135
Ti       2.64822932       3.93122209       9.81006590      -0.01059520      -0.00489515      -0.00531154
Ti       0.10668378       8.80201302       9.81410733      -0.00736993      -0.00474714      -0.00419219
Ti       3.64409437       1.33890370      10.56701260       0.00053708       0.00161313      -0.00702174
Ti       1.09643255       6.20754686      10.56558076      -0.00038231      -0.00374755      -0.00572741
Ti       0.23128349       3.53834882      11.15608050       0.00320596      -0.00157788      -0.00320284
Ti       2.77544551       8.40723771      11.15263064       0.00079377      -0.00835158       0.00093145
Ti       3.57496921       5.73734983      11.83711627      -0.00423015      -0.00801373      -0.00311695
Ti       1.03604297       0.86923392      11.84362185      -0.00541805      -0.00201946      -0.00587039
Ti       2.76109029       3.07247231      12.60914973      -0.00247701      -0.00170634       0.00020899
Ti       0.21816914       7.94534844      12.61153821      -0.00278005      -0.00958333       0.00276254
Ti       3.55860341       0.38094387      13.28986560      -0.00547177      -0.00762672       0.00416954
Ti       1.00820939       5.25719266      13.29543414      -0.00570650      -0.00720163       0.00315424
Ti       2.72209616       7.44573255      13.97632882      -0.00231824      -0.01169793       0.00937137
Ti       0.17397455       2.57923027      13.98210692      -0.00483108      -0.00382400       0.00476858
Ti       3.61154297       4.82212827      14.69170597       0.00021560      -0.00500817       0.00698531
Ti       1.07495060       9.69251479      14.70256454      -0.00140457      -0.01097797       0.00633549
Ti       2.71162217       2.16386225      15.33099611      -0.00497335      -0.00372518       0.00718597
Ti       0.16506917       7.04447132      15.34450937      -0.00544065      -0.00923052       0.00878468
Ti       3.61859969       9.29487098      16.01823123      -0.00083952      -0.01096319       0.00661208
Ti       1.06086193       4.43303955      16.02226888      -0.00048121      -0.00270981       0.00800553
Ti       2.77221731       6.60567447      16.74453581      -0.00604833      -0.00912869       0.00503404
Ti       0.23111821       1.74813244      16.76254513      -0.00528912      -0.00480846       0.00517418
Ti       3.50436144       3.82881084      17.38975377       0.00613989       0.00291148       0.00762404
Ti       0.96774933       8.70635585      17.42166844       0.00771731      -0.00678796       0.00398795
Ti       2.59808901       1.01547531      18.14984242       0.00148803       0.00314708       0.00560270
Ti       0.01775390       5.88820008      18.20046389       0.00076357      -0.00046687      -0.00140801
Ti       1.30676571       3.31438948      18.90989155       0.00116889       0.00751005      -0.00299512
Ti       3.82466798       8.17668654      18.91266591      -0.00249488       0.00028848      -0.00380312
Ti       2.54594132       5.77971275      19.44255083       0.00042025       0.00363727       0.00274097
Ti       5.07956276       0.93981990      19.45619020       0.00195246       0.00269856       0.00689070
Ti       3.93306474       3.57020719      20.10649205       0.00458599       0.00523178       0.00288851
Ti       1.30348795       8.41211184      20.15200388       0.00672295       0.00303586       0.00603872
Al       2.35591591       1.39078049      20.86520736       0.00211242       0.00244767      -0.00056436
Ti       4.89278616       6.24480994      20.93619351       0.00344840       0.00598886      -0.00449594
Ti       1.55337184       4.05638124      21.57623517       0.00032098       0.00533241      -0.00376735
Ti       3.97474903       8.94142710      21.60740816      -0.00264591       0.00540456       0.00107615
Ti       4.87895678       1.87943870      22.21203419       0.00491535       0.00113568       0.00012788
Ti       2.36180568       6.77197782      22.22666252       0.00555989       0.00455489       0.00346107
Ti       1.41864865       9.37909041      22.90397029      -0.00314066       0.00215106      -0.00207737
Ti       4.03474449       4.51749902      22.97623058       0.00083769       0.00764702      -0.00220951
Ti       2.40362307       2.25966354      23.60256902       0.00576563       0.00056894      -0.00426153
Ti       4.91191025       7.15311799      23.64262174       0.00637819       0.00535640      -0.00187255
Ti       1.51432565       4.91945220      24.32299587      -0.00202197       0.00852879      -0.00281304
Ti       4.05774393       0.03282763      24.35386379       0.00218368       0.00168806      -0.00553000
Ti       2.34508039       7.58097065      24.98110340       0.00142378       0.00465240      -0.00161950
Ti       4.91466936       2.69784960      24.97775045       0.00279653       0.00522264      -0.00613376
Ti       1.52454356       0.50112951      25.69855049       0.00264489       0.00582990      -0.00408506
Ti       4.07268696       5.36030859      25.71756949       0.00280949       0.01334013      -0.00131731
Ti       2.35545120       3.15210962      26.43698803       0.00118798       0.01075599      -0.00046959
Ti       4.90033850       8.02471690      26.46720575      -0.00130357       0.00545859       0.00106675
Ti       1.55669822       5.82655009      27.13597252       0.00714277       0.01078933       0.00385712
Ti       4.10215915       0.96507087      27.15017054       0.00188772      -0.00024276      -0.00071619
Ti       4.97355232       3.62175685      27.73693798       0.00431969       0.01188360      -0.00139918
Ti       2.42712568       8.49272472      27.73152852       0.00513296       0.00450691       0.00148894
Ti       1.43822717       1.34350245      28.48893772       0.00128327       0.00502299      -0.00036051
Ti       3.97288122       6.21723631      28.50101954      -0.00112582       0.00952054       0.00078087
Ti       2.21045313       3.92482089      29.07231241       0.00124564       0.01123001      -0.00663608
Ti       4.74017922       8.80115082      29.09093594       0.00151932      -0.00205272      -0.00820212
Ti       1.57769910       6.83028416      29.64186163       0.00442860       0.00137784      -0.00050702
Ti       4.13722980       1.96767769      29.65271537       0.00482662       0.00085897      -0.00164312
