64
Lattice="5.871999 0.0 0.0 0.0 6.890708 0.0 0.0 0.0 43.401158" Properties=species:S:1:pos:R:3:forces:R:3 job_name=Segregation-1sol-addvac-T1m-V-V-44-d-4.84 top_level=Segregation-1sol-addvac solute=V energy=-486.75687601 stress_kbar_3x3="_JSON [[-5.89722089, 0.00062464, 0.00052596], [0.00062464, -15.83695914, -1.81612315], [0.00052593, -1.81612316, -0.21625094]]" pbc="T T T"
Ti       1.46802877       5.00988996       8.94621681       0.00009207       0.00855971      -0.00794471
Ti       4.40404079       5.00990776       8.94648835      -0.00004672       0.00840917      -0.00801997
Ti       4.40408549       1.22306642       9.33824642      -0.00025306       0.00366670       0.00339067
Ti       1.46804689       1.22331491       9.33669834       0.00017796       0.00308414       0.00529613
Ti       0.00016144       3.37115396      10.54091700       0.00034617       0.00780702      -0.01526945
Ti       2.93591437       3.37115782      10.54088669      -0.00036007       0.00775463      -0.01524279
Ti       2.93602506       6.30571628      10.88301394      -0.00048115       0.00963948      -0.01102282
Ti       0.00007703       6.30575655      10.88295934       0.00048802       0.00951033      -0.01057478
Ti       4.40402169       1.50646777      12.15271913       0.00003615       0.00674173      -0.00770366
Ti       1.46804228       1.50691201      12.15076320      -0.00008085       0.00633902      -0.00696347
Ti       1.46803763       4.48078877      12.69129027       0.00001434       0.00305840      -0.00461289
Ti       4.40403170       4.48073805      12.69114563       0.00006430       0.00259810      -0.00464911
Ti       2.93513738       6.62978330      13.84237789       0.00012163       0.00562926       0.00583913
Ti       0.00089533       6.62979498      13.84231169      -0.00008889       0.00564026       0.00622453
Ti       2.93500291       2.58384925      14.36517396       0.00060017       0.00119869       0.01433669
Ti       0.00106769       2.58386933      14.36513565      -0.00063503       0.00106273       0.01450100
Ti       1.46802562       4.73048081      15.51381347      -0.00018381       0.00089035       0.01721688
Ti       4.40399454       4.72887995      15.51389344       0.00023075       0.00176110       0.01704298
Ti       4.40398078       0.77688802      16.08041961       0.00026394       0.00249973       0.01405364
Ti       1.46806032       0.77724586      16.08767436      -0.00029738       0.00320457       0.01336783
Ti       2.93548396       2.93116883      17.28159795      -0.00015520       0.00144636      -0.00130350
Ti       0.00052795       2.93118805      17.28157387       0.00020359       0.00122983      -0.00122141
Ti       0.00197763       5.77948972      17.73760910      -0.00011100       0.00192303      -0.00299357
Ti       2.93404025       5.77944198      17.73768125       0.00008761       0.00226344      -0.00346325
Ti       4.40396235       0.99543879      18.88630485       0.00017519       0.00740759      -0.00137961
Ti       1.46804031       0.99631401      18.89826734      -0.00017310       0.00684729      -0.00314914
Ti       4.40404059       4.10529043      19.47562564       0.00000064      -0.00313584      -0.01024321
Ti       1.46799006       4.10668753      19.48369023      -0.00003267      -0.00187924      -0.01015262
Ti       5.86896657       6.21201914      20.82477505       0.00071304       0.00304877      -0.00968050
Ti       2.93906436       6.21201721      20.82472932      -0.00068756       0.00300509      -0.00946310
Ti       5.86700506       2.17995732      20.95578981       0.00363969       0.00433793       0.00848027
Ti       2.94099806       2.17998554      20.95580058      -0.00357260       0.00442408       0.00850421
Ti       4.40405191       4.17525271      22.28281371      -0.00003824       0.00991239      -0.00134062
Ti       1.46798670       4.18601999      22.29246407      -0.00001848       0.01125112      -0.00043057
Ti       1.46803841       0.81699781      22.84517226       0.00003504      -0.00818670       0.01259068
Ti       4.40399661       0.83471154      22.89464158      -0.00005343      -0.00708399       0.00569505
Ti       2.95162163       5.71099620      24.12592357       0.00148825      -0.00657160       0.01654756
Ti       5.85638391       5.71099925      24.12602152      -0.00150480      -0.00650331       0.01622701
Ti       2.95519988       2.82188478      24.37506560      -0.00154786       0.00171724       0.00161123
Ti       5.85284521       2.82184595      24.37513004       0.00150998       0.00183578       0.00127716
Ti       1.46804515       0.70998649      25.62127126       0.00003496      -0.00223652       0.00642520
V        4.40393123       0.72622182      25.63620749       0.00012505      -0.00134105       0.00538790
Ti       1.46798700       4.55749632      26.19922493       0.00004346      -0.00675838      -0.00298521
Ti       4.40400819       4.61331965      26.21780041       0.00003910      -0.00865706      -0.00118529
Ti       5.84684026       2.43472204      27.30904330       0.00023497       0.00314455      -0.00453141
Ti       2.96117286       2.43476528      27.30898009      -0.00032409       0.00302748      -0.00458222
Ti       2.95825765       6.51547316      27.80133286      -0.00027493      -0.00856637      -0.01166925
Ti       5.84977134       6.51546708      27.80132397       0.00017129      -0.00873398      -0.01156785
Ti       1.46802051       4.36008479      28.98702528       0.00004184      -0.00316988      -0.00448513
Ti       4.40396151       4.34978908      28.99728381       0.00004771      -0.00348501      -0.00392067
Ti       1.46802959       1.48567084      29.55329553       0.00000003      -0.00403848       0.00152339
Ti       4.40397735       1.48698513      29.57589417      -0.00002953      -0.00381066       0.00209852
Ti       0.00325534       6.24383840      30.69811145       0.00108620      -0.00219258       0.00440095
Ti       2.93270248       6.24382273      30.69801272      -0.00098818      -0.00227354       0.00492758
Ti       2.93042629       3.32156465      31.21109808      -0.00088058      -0.01172464      -0.00560546
Ti       0.00557692       3.32157938      31.21098617       0.00089009      -0.01199808      -0.00526533
Ti       1.46803936       1.22834896      32.47472008       0.00042240      -0.00860519      -0.01573973
Ti       4.40401087       1.23130607      32.48688730      -0.00047941      -0.00926361      -0.01447984
Ti       1.46807767       5.16981962      32.86602686       0.00041888      -0.00962314      -0.01433992
Ti       4.40393601       5.17110756      32.86217032      -0.00054504      -0.00937251      -0.01369994
Ti       2.93450306       3.03132398      34.04425703      -0.00058842      -0.00436621       0.00917977
Ti       0.00154245       3.03122033      34.04416962       0.00057598      -0.00378973       0.00917721
Ti       2.93329298       6.83984763      34.42960645      -0.00131350      -0.00424669       0.01751614
Ti       0.00272659       6.83989288      34.42946090       0.00132505      -0.00426306       0.01804269
