64
Lattice="5.872 0.0 0.0 0.0 6.890708 0.0 0.0 0.0 43.394398" Properties=species:S:1:pos:R:3:forces:R:3 job_name=Segregation-1sol-addvac-T1g-V-V-31-d-0.22 top_level=Segregation-1sol-addvac solute=V energy=-486.67126223 stress_kbar_3x3="_JSON [[-7.43201958, -0.0003214, -0.00011791], [-0.00032142, -19.06836024, -1.33603421], [-0.00011787, -1.33603421, -3.4443801]]" pbc="T T T"
Ti       0.00124722       3.41580327       8.89972603      -0.00034438       0.00596131       0.00483494
Ti       2.93471320       3.41576021       8.89966073       0.00033202       0.00596043       0.00535231
Ti       2.93622999       6.50422269       9.29844009       0.00002799       0.00393293       0.00288130
Ti       5.87179740       6.50424475       9.29845348      -0.00008537       0.00398974       0.00302684
Ti       1.46796456       1.76960289      10.49135982       0.00021940       0.00670333       0.01600168
Ti       4.40399063       1.76767337      10.48852675      -0.00028534       0.00700733       0.01710623
Ti       4.40399595       4.70139118      10.84546237      -0.00022293      -0.00551448       0.01442913
Ti       1.46797288       4.70185870      10.84926190       0.00020173      -0.00443059       0.01548337
Ti       2.93560395       6.79804188      12.11630954      -0.00013856       0.00327877       0.01371062
Ti       0.00026521       6.79805632      12.11647225       0.00014528       0.00325386       0.01316269
Ti       0.00154582       2.86515801      12.65534399       0.00074283       0.00895074       0.01402561
Ti       2.93435521       2.86514992      12.65532497      -0.00050518       0.00883653       0.01434592
Ti       4.40390421       5.01802433      13.80299215       0.00000882      -0.00624770       0.00944305
Ti       1.46795313       5.01966691      13.81083705       0.00018909      -0.00545005       0.00878631
Ti       4.40394262       0.96728596      14.34297506      -0.00014545       0.00737338       0.00215033
Ti       1.46795133       0.96731202      14.34676855       0.00024626       0.00691699       0.00264842
Ti       5.86715498       3.12289551      15.49055392       0.00003115       0.00302533      -0.00151270
Ti       2.94080304       3.12285389      15.49058003      -0.00020270       0.00305758      -0.00195595
Ti       5.87047590       6.03845993      16.06703870       0.00089822      -0.00215422       0.00439346
Ti       2.93747437       6.03842951      16.06704294      -0.00110198      -0.00189965       0.00399949
Ti       4.40401621       1.30730610      17.24317468       0.00005064       0.00327521       0.00336876
Ti       1.46794384       1.30343983      17.25995301       0.00003443       0.00508391       0.00061467
Ti       1.46797775       4.16492169      17.71255022      -0.00012513       0.00575820       0.00199120
Ti       4.40401514       4.16228939      17.74990013       0.00009053       0.00454715       0.00173367
Ti       0.00439934       6.28138985      18.91404442       0.00010162      -0.00357474       0.00082061
Ti       2.93163325       6.28135092      18.91408910      -0.00010371      -0.00332850       0.00085834
Ti       2.97420438       2.44964259      19.45001296      -0.00130269       0.00192336      -0.00692288
Ti       5.83379054       2.44966242      19.45011906       0.00124500       0.00202039      -0.00733976
V        4.40403086       4.55022340      20.70369228       0.00009179       0.00173706      -0.00089329
Ti       1.46806833       4.58241516      20.70399551      -0.00007292       0.00329143      -0.00287953
Ti       1.46798759       0.57359109      21.03987704       0.00003634      -0.00560444       0.00336166
Ti       4.40406697       0.47531167      21.05084132      -0.00009590      -0.00832692       0.00209288
Ti       3.00014984       2.62385395      22.21182235       0.00135922       0.00033196       0.00047271
Ti       5.80802100       2.62390262      22.21192064      -0.00154678       0.00057337       0.00059542
Ti       2.93952951       5.82625401      22.79000350      -0.00059503       0.00260648      -0.00650668
Ti       5.86854335       5.82628329      22.79005579       0.00069283       0.00222737      -0.00632816
Ti       1.46811826       3.86981556      24.16307499      -0.00007211      -0.00366060       0.00270840
Ti       4.40390710       3.88192143      24.19075056       0.00038102      -0.00566721      -0.00107667
Ti       4.40410875       1.02636357      24.24277672      -0.00004139       0.00264579       0.00012078
Ti       1.46810306       1.02127603      24.25198540       0.00000511       0.00284656      -0.00089697
Ti       2.92539212       5.82178142      25.62999312      -0.00101519      -0.00241413       0.00622601
Ti       0.01073121       5.82183214      25.63000382       0.00089262      -0.00257693       0.00603408
Ti       2.94062507       2.72062339      26.22182312      -0.00138839       0.00136903      -0.00460058
Ti       5.86743567       2.72069058      26.22177132       0.00138366       0.00135047      -0.00523482
Ti       4.40402993       0.62160257      27.37046052       0.00006671      -0.00563306       0.00257478
Ti       1.46807494       0.61917127      27.37411831      -0.00014589      -0.00524603       0.00128603
Ti       4.40400782       4.67409105      27.83038878       0.00017967      -0.00119734       0.00034091
Ti       1.46807956       4.67332367      27.83909603      -0.00014289      -0.00204326       0.00204823
Ti       5.87101503       2.53031170      29.03718760       0.00087014       0.00332762       0.00139810
Ti       2.93706156       2.53024113      29.03717712      -0.00092402       0.00344263       0.00074819
Ti       0.00106165       6.51562712      29.61281703      -0.00069630      -0.01196401      -0.00411201
Ti       2.93499344       6.51564594      29.61274683       0.00079422      -0.01178986      -0.00403389
Ti       4.40394505       4.38800981      30.75200038       0.00040618       0.00298550      -0.01303247
Ti       1.46801187       4.38752186      30.75723691      -0.00027205       0.00282931      -0.01428881
Ti       4.40408403       1.46454021      31.25684003       0.00008053      -0.00419209      -0.01337290
Ti       1.46811737       1.46363288      31.25606880      -0.00032987      -0.00397430      -0.01514716
Ti       5.87132315       6.26346532      32.53702859      -0.00051345      -0.01469853      -0.00871947
Ti       2.93673702       6.26356395      32.53687991       0.00043325      -0.01487676      -0.00818438
Ti       2.93841280       3.30769575      32.92190660       0.00099246       0.00998113      -0.01351483
Ti       5.86957281       3.30774816      32.92186206      -0.00090196       0.00992627      -0.01347719
Ti       1.46796810       1.17295529      34.10219141       0.00012597      -0.00436006      -0.01031026
Ti       4.40406084       1.17427177      34.10445963      -0.00020236      -0.00392718      -0.01074864
Ti       1.46797142       4.97725518      34.48767033       0.00016629      -0.00373702      -0.01468402
Ti       4.40398852       4.97713450      34.49119436      -0.00000312      -0.00383878      -0.01540307
