64
Lattice="5.871999 0.0 0.0 0.0 6.890708 0.0 0.0 0.0 43.401158" Properties=species:S:1:pos:R:3:forces:R:3 job_name=Segregation-1sol-addvac-T1m-Al-Al-34-d-0.00 top_level=Segregation-1sol-addvac solute=Al energy=-482.86220889 stress_kbar_3x3="_JSON [[-4.37044728, 0.02095754, 0.00233703], [0.02095754, -13.35670879, -0.02178601], [0.00233702, -0.02178601, -0.27317711]]" pbc="T T T"
Ti       4.40500185       4.97265707       8.96404006      -0.00006557       0.00175811       0.01312125
Ti       1.46714366       4.97261511       8.96465662       0.00010083       0.00257251       0.00462055
Ti       1.46693036       1.19334942       9.35542554      -0.00026668       0.00603086      -0.00132258
Ti       4.40515773       1.19340602       9.35479490       0.00027117       0.00682998       0.00332752
Ti       0.00055843       3.33094567      10.55834450      -0.00246277       0.01299562      -0.00999260
Ti       2.93554159       3.33509758      10.56222460       0.00279938       0.01386104      -0.00922720
Ti       2.93556358       6.27870349      10.89563339       0.00373987      -0.01333478       0.00943400
Ti       0.00060132       6.27424447      10.89800866      -0.00354713      -0.01254619       0.01026022
Ti       4.40557092       1.46610895      12.16867930      -0.00018516       0.00031695       0.00531450
Ti       1.46662566       1.46606802      12.16874609       0.00033728       0.00230417       0.00801417
Ti       4.40471351       4.45132435      12.71067825       0.00043643       0.00324245      -0.01618060
Ti       1.46734326       4.45117386      12.71086259      -0.00031657       0.00185663      -0.01272869
Ti       2.93625234       6.59132020      13.86316319       0.00080794       0.00310056      -0.01035453
Ti       5.87190312       6.58590723      13.86776525      -0.00054811       0.00201160      -0.00780597
Ti       0.00019219       2.54474177      14.37223982      -0.00077982      -0.00972406      -0.00240277
Ti       2.93612047       2.54758337      14.38381493       0.00075810      -0.01269078      -0.00287083
Ti       4.39165504       4.66995530      15.52816774      -0.00067184      -0.00185495      -0.00629154
Ti       1.48054641       4.66986745      15.52933198       0.00057020      -0.00126483      -0.00520485
Ti       1.47038065       0.75666534      16.10027927      -0.00257023      -0.00627356      -0.01421279
Ti       4.40196038       0.75647229      16.10241517       0.00281682      -0.00595199      -0.01321856
Ti       5.87169285       2.89252636      17.33027194      -0.00052307      -0.00145046      -0.01345334
Ti       2.93629560       2.88798178      17.34890304       0.00039105      -0.00194496      -0.00853257
Ti       5.87039044       5.72633709      17.68160085      -0.00073121      -0.00079979      -0.00426047
Ti       2.93850476       5.74365850      17.73622338       0.00155134       0.00259313      -0.00184379
Ti       1.43012995       0.91730104      18.89614411       0.00281834      -0.00320852       0.00251990
Ti       4.43952130       0.91963988      18.89982230      -0.00498195      -0.00217434       0.00461620
Ti       1.51480383       4.15253750      19.48117775       0.00405897      -0.00441474       0.00688398
Ti       4.35909887       4.15048540      19.48196400      -0.00298472      -0.00425863       0.00637103
Al       2.93737269       6.21404958      20.84564418       0.00150179       0.00454894       0.00031001
Ti       0.00158032       6.26137605      20.83662937       0.00035534       0.00412448      -0.00132492
Ti       0.00679409       2.24332200      20.86994016       0.00490300      -0.00238726       0.00914019
Ti       2.92396600       2.11236945      20.87124577      -0.00758560      -0.00713613       0.00966827
Ti       4.35560643       4.15323596      22.21574349      -0.00554349       0.00508326       0.00570833
Ti       1.51831662       4.15604580      22.21750972       0.00650108       0.00602972       0.00504905
Ti       4.44638720       0.88224617      22.80532092      -0.00457166      -0.00163129       0.00006218
Ti       1.42301502       0.87951024      22.80915146       0.00196999      -0.00308934       0.00180768
Ti       2.93889626       5.71151017      23.98037236       0.00252474       0.00527406       0.00729054
Ti       5.86992482       5.68813121      24.03254653      -0.00175931       0.00545496       0.00545413
Ti       2.93651439       2.85809784      24.34472168       0.00058315      -0.00314411      -0.00169783
Ti       5.87157382       2.86401992      24.36907721      -0.00070081      -0.00375099       0.00183103
Ti       4.40506929       0.71773299      25.60709978       0.00118879       0.00331418      -0.00031239
Ti       1.46723417       0.71817040      25.60909962      -0.00100297       0.00308653       0.00135628
Ti       1.48104376       4.65147310      26.17737016       0.00072715       0.00320624       0.00730419
Ti       4.39108636       4.65136344      26.17903064      -0.00053708       0.00318138       0.00759662
Ti       2.93603840       2.51315107      27.31739957      -0.00045665       0.00800376       0.00219815
Ti       0.00004512       2.50964445      27.33041643       0.00065903       0.00756970       0.00188582
Ti       5.87178559       6.54887137      27.84154264       0.00040324      -0.00368249       0.00623606
Ti       2.93634567       6.55637858      27.84459116      -0.00042917      -0.00726203       0.00080359
Ti       1.46866627       4.39633785      29.00556831       0.00026578      -0.00678801       0.00148328
Ti       4.40335785       4.39651564      29.00624790      -0.00004484      -0.00646588       0.00250883
Ti       4.40462748       1.52419102      29.57711640       0.00058254       0.00793514       0.00410294
Ti       1.46741599       1.52424435      29.57688092      -0.00060122       0.00858918       0.00344525
Ti       0.00015009       6.27544412      30.71244811      -0.00002472       0.00614376       0.00801241
Ti       2.93589554       6.27763065      30.71181554       0.00021967       0.00438889       0.00844305
Ti       2.93587081       3.34481325      31.23005994      -0.00015559       0.00140081      -0.00527528
Ti       0.00010917       3.34250473      31.23070291       0.00019458       0.00185182      -0.00720871
Ti       4.40433087       1.25247224      32.50106558      -0.00024388      -0.00712653      -0.01796313
Ti       1.46764023       1.25246433      32.50103547       0.00021341      -0.00725018      -0.01821982
Ti       4.40194316       5.19428380      32.87600112       0.00028363      -0.00523884      -0.00510052
Ti       1.47009989       5.19433894      32.87617777      -0.00017375      -0.00506072      -0.00513883
Ti       2.93604135       6.85936307      34.44805118       0.00014109      -0.00758397       0.00680643
Ti       5.87196976       6.85977041      34.44604257      -0.00011200      -0.00788887       0.00906449
Ti       2.93602948       3.05223478      34.05978379       0.00000895       0.00899997       0.00408907
Ti       5.87199873       3.05103894      34.05813965      -0.00010709       0.00971884       0.00600393
