52
Lattice="4.6568 0.0 0.0 0.0 7.770572 0.0 0.0 0.0 41.044546" Properties=species:S:1:pos:R:3:forces:R:3 job_name=Segregation-1sol-addvac-CSL7-V-V-39-d-6.91 top_level=Segregation-1sol-addvac solute=V energy=-393.99593791 stress_kbar_3x3="_JSON [[-18.79246795, 0.03373489, -0.44339868], [0.03373488, -19.25135336, 0.05180364], [-0.44339871, 0.05180364, -6.13667313]]" pbc="T T T"
Ti       2.30526060       7.26555045       8.63675405      -0.00111885       0.00152372       0.01972990
Ti       4.63519842       5.37386481       8.88149419       0.00201971       0.01144347       0.01617624
Ti       2.30709737       2.26491362       9.40417152       0.00099562      -0.00421353       0.00417187
Ti       4.63828838       0.55826068       9.75217828       0.00023172      -0.00749871       0.00620210
Ti       2.30702863       4.98618662      10.36709017       0.00144621       0.00958413       0.00580039
Ti       4.63525362       3.39352530      10.68914202       0.00210280      -0.00813742       0.00949738
Ti       2.31412002       0.11485967      11.30190377      -0.00007847      -0.01001885       0.00047689
Ti       4.64180124       6.14487212      11.54281136       0.00064994      -0.00003239       0.00712101
Ti       2.31144985       2.79513313      12.22013971       0.00093109      -0.00567673       0.01276884
Ti       4.64398491       1.12419652      12.59718532       0.00036686       0.00892584       0.01337362
Ti       2.31124091       5.59155486      13.13224394       0.00222250      -0.00238280       0.01379468
Ti       4.64071115       3.92314646      13.53542528       0.00267351       0.00293036       0.00295171
Ti       2.31972044       0.58775157      14.18667124       0.00102185       0.00125736      -0.00438976
Ti       4.65362913       6.67465936      14.42339610       0.00162418      -0.01044974       0.00037447
Ti       2.31572930       3.33939896      15.11243540       0.00141342       0.00485207      -0.00260185
Ti       4.65548348       1.69700347      15.48656349       0.00090314      -0.00207722      -0.00239022
Ti       2.34119058       6.10724181      15.96831275       0.00070960      -0.00385279      -0.00251333
Ti       4.61683424       4.45025011      16.44642219       0.00002388       0.00183279       0.00442763
Ti       2.35068403       1.10838909      17.07756640      -0.00061214       0.00172284       0.00997423
Ti       0.02085957       7.21696003      17.23167983      -0.00214042      -0.00100525       0.00587178
Ti       2.23002494       3.80826402      18.00850706      -0.00422210       0.00026173       0.00605737
Ti       0.12547424       2.16733412      18.46200432      -0.00185227       0.00066959       0.00811358
Ti       2.28928365       6.59261747      18.69631357      -0.00179717       0.00443982       0.00426887
Ti       4.14449098       4.82701532      19.36210497      -0.01377661       0.00220403      -0.01079106
Ti       2.70527115       1.61082733      20.05942242      -0.00009543      -0.00479043       0.00055004
Ti       0.37179463       7.63300947      20.07494217      -0.00192634       0.01347943       0.00675559
Ti       1.25970798       4.82112014      20.75426763       0.00717000       0.00209926       0.01402011
Ti       3.10635595       6.58576338      21.45961885       0.00324857       0.00264124       0.00679316
Ti       0.62103159       2.16425829      21.65897783       0.00013675      -0.00134271      -0.00444159
Ti       3.17465431       3.80366567      22.10302923       0.00233591       0.00047217       0.00053489
Ti       0.71237699       7.22002337      22.93189754       0.00003741      -0.00105088      -0.00369311
Ti       3.04083922       1.11268985      23.04442663      -0.00215804      -0.00195931      -0.00780601
Ti       0.79562496       4.45566941      23.62002357       0.00102098       0.00394534      -0.00463747
Ti       3.04874168       6.08900518      24.22047375      -0.00157762      -0.00250873      -0.00598615
Ti       0.72827439       1.71732867      24.62104032      -0.00116569       0.00130874      -0.00300539
Ti       3.07224226       3.34685801      24.98848067      -0.00044347       0.00145537      -0.00003239
Ti       0.71787239       6.67339592      25.75182745      -0.00154189      -0.00216680       0.00267634
Ti       3.05463082       0.60196092      25.92201799      -0.00017336       0.00351873       0.00716649
Ti       0.73273970       3.98745736      26.53695439       0.00021544      -0.00599422      -0.00026241
V        3.05828178       5.54803998      26.96071820      -0.00011592      -0.00106066       0.00382260
Ti       0.72669776       1.24068110      27.51305289       0.00164420       0.00337095      -0.00263692
Ti       3.05744621       2.86441120      27.82758251       0.00118538      -0.00667753      -0.01403589
Ti       0.72572943       6.10168793      28.46230259       0.00004782       0.00911361      -0.01462985
Ti       3.05331024       7.76943137      28.71097977       0.00118321      -0.00473623      -0.01474309
Ti       0.72800910       3.39152447      29.44794365      -0.00078827      -0.00323553      -0.00915941
Ti       3.05845101       5.10846083      29.72526191      -0.00016396      -0.00588045      -0.00856372
Ti       0.72696890       0.61666164      30.30643799       0.00062953      -0.01196095      -0.01079718
Ti       3.05714856       2.21162625      30.57524104      -0.00052416       0.00324944      -0.01054576
Ti       0.73023877       5.53944774      31.30708531      -0.00006540       0.00135534      -0.01066567
Ti       3.05500574       7.26348788      31.56952665       0.00031210      -0.00046280      -0.00934725
Ti       3.05827961       4.49928305      32.38429259      -0.00084611       0.00273114      -0.01866038
Ti       0.72912146       2.61050419      32.09793562      -0.00131959       0.00878413      -0.01713591
