100
Lattice="4.4265 -2.555641 0.0 3.767997 6.526363 -0.031456 0.0 0.0 61.781652" Properties=species:S:1:pos:R:3:forces:R:3 job_name=Segregation-1sol-addvac-CSL13-Al-Al-58-d-4.19 top_level=Segregation-1sol-addvac solute=Al energy=-761.42768005 stress_kbar_3x3="_JSON [[-28.02409902, -3.11642492, 1.29383652], [-3.11642492, -28.91080848, 0.70891373], [1.29383652, 0.70891374, -3.92139273]]" pbc="T T T"
Ti       5.98523781       1.88566541       8.74107342      -0.00316134      -0.00309820      -0.00481783
Ti       2.65823631      -0.54460843       8.75591639      -0.00088504      -0.00392413       0.00151102
Ti       4.40592944       4.15743460       9.72217561       0.00380387       0.00124137      -0.00667794
Ti       5.41534545      -0.77572906       9.73752447      -0.00127254       0.00415107      -0.00518994
Ti       3.84240661       1.43842319      10.38202483       0.00550794      -0.00237798       0.00297880
Ti       7.11002772       3.90166371      10.36644669      -0.00399706       0.00522319       0.00357461
Ti       6.54850233       1.24866259      11.28966404      -0.00239277      -0.00512929      -0.00610576
Ti       1.82426877      -0.37479998      11.30613666      -0.00039746      -0.00455458      -0.00787347
Ti       4.99098632       3.52610400      12.31258650      -0.00162622      -0.00033340      -0.00475430
Ti       4.57540138      -0.58539671      12.32808687       0.00003747      -0.00084587      -0.00483224
Ti       2.91394970       1.68010212      13.11777174      -0.00339157      -0.00019051      -0.00388763
Ti       3.35727679       5.77492691      13.10229835       0.00187287      -0.00261790      -0.00351602
Ti       2.33285805      -0.97223468      14.08468112       0.00008260      -0.00217985      -0.00390643
Ti       5.77709933       1.39083763      14.06854726      -0.00305694      -0.00140468      -0.00396374
Ti       0.78768914       1.26871346      15.00688952      -0.00266791      -0.00242685      -0.00540291
Ti       4.06214380       3.72728012      14.99129365       0.00022204      -0.00260934      -0.00483292
Ti       3.52788205       0.99763934      15.79133876       0.00023007       0.00088971      -0.00089970
Ti       6.88516142       3.41017162      15.77530407       0.00196620       0.00076586      -0.00100085
Ti       6.30782980       0.76102387      16.82157412      -0.00380667      -0.00318180      -0.00002193
Ti       1.52064026      -0.82516837      16.83669413      -0.00119136      -0.00474649      -0.00038914
Ti       4.75661373       2.99141579      17.64019653      -0.00212067      -0.00136173       0.00342798
Ti       4.22627687      -1.05646241      17.65595565      -0.00015508      -0.00106206       0.00277379
Ti       7.44211246       2.76386621      18.48161363      -0.00118006      -0.00337676       0.00585816
Ti       2.68829004       1.15759139      18.49703759      -0.00222797      -0.00217188       0.00576760
Ti       5.86537773       5.06121954      19.58921281       0.00109849      -0.00204505       0.00407641
Ti       5.46232587       0.94351485      19.60394360      -0.00140836       0.00059740       0.00392670
Ti       0.50621055       0.75863689      20.27079428      -0.00221562      -0.00225703       0.00320412
Ti       3.75663380       3.22981357      20.25397368      -0.00138736      -0.00279918       0.00219755
Ti       6.76455583       2.87754768      21.21324565      -0.00075854      -0.00011676       0.00311859
Ti       3.12218947       0.62905314      21.23004329      -0.00179993       0.00015255       0.00377133
Ti       1.69484806       2.89636086      22.43863799      -0.00276044      -0.00101250       0.00279226
Ti       5.00975307       5.33212411      22.42265195       0.00017269      -0.00126754       0.00356572
Ti       3.98651238      -1.50847544      22.87372770      -0.00115566      -0.00156569      -0.00131734
Ti       4.47692853       2.56158799      22.85765150       0.00074851      -0.00102349      -0.00000653
Ti       7.02543935       2.56267141      23.98264368      -0.00171031      -0.00048174      -0.00444708
Ti       2.71088096       0.70169730      23.99894312       0.00031850      -0.00136684      -0.00443019
Ti       5.27165743       0.71651104      25.28803711      -0.00054610      -0.00091534      -0.00047429
Ti       5.75487119       4.78878897      25.27543058      -0.00381333      -0.00184045      -0.00169895
Ti       3.60778864       2.93445662      25.49205854       0.00064765       0.00133631      -0.00336004
Ti       0.31362547       0.48734171      25.50864074       0.00061436       0.00046351      -0.00334518
Ti       6.83720680       2.57831933      26.75373439       0.00221009      -0.00309481       0.00000596
Ti       2.81529122       0.55649667      26.77018509      -0.00054747       0.00078412       0.00312365
Ti       1.61608042       2.75619806      28.12485655       0.00270874       0.00150795       0.00244739
Ti       4.91386053       5.20676189      28.11405049       0.00211821      -0.00018470       0.00091712
Ti       3.90493805      -1.65667160      28.17695702      -0.00005405       0.00206014       0.00092754
Ti       4.37236692       2.42859061      28.15987376      -0.00332594      -0.00243294       0.00111079
Ti       6.83877154       2.51925434      29.51378101      -0.00531881       0.00368121       0.00259419
Ti       2.75291827       0.53020780      29.53186996      -0.00003969       0.00126710      -0.00058009
Ti       0.25414926       0.41388718      30.85140542      -0.00029769       0.00155134      -0.00098139
Ti       5.21056095       0.62719801      30.97797935       0.00008230       0.00445381       0.00347029
Ti       3.56884583       2.84701924      30.83000456      -0.00028524      -0.00325296       0.00139244
Ti       5.69289564       4.73094081      30.94233688       0.00031939       0.00154381      -0.00082390
Ti       6.89817361       2.43786943      32.27892536      -0.00112760       0.00035987       0.00122356
Ti       2.65860565       0.59194130      32.29857064       0.00051152       0.00366363      -0.00102079
Ti       3.78953201      -1.69518240      33.41528931       0.00679391       0.00517000       0.00078478
Ti       4.39381240       2.51391820      33.46497140      -0.00084100       0.00268782      -0.00207605
Ti       4.89828764       5.28579195      33.77340814       0.00211354       0.00328920       0.00621573
Ti       5.93136278       0.16327597      33.91023290      -0.00053494       0.00408613       0.00414737
Al       3.12311304       0.43929369      35.02555593       0.00342371       0.01143790      -0.00078275
Ti       6.72734541       2.71010852      35.04958040      -0.00172685       0.00203047       0.00713429
Ti       4.85412286      -1.80562255      35.95967574       0.00340913       0.00784814       0.00480319
Ti       3.59303408       3.03796494      36.00182575       0.00120536       0.00456373       0.00123970
Ti       5.76686822       4.88105247      36.62947850       0.00281325       0.00409034       0.00336824
Ti       5.35004108       0.92024625      36.73729401       0.00408473       0.00414358       0.00181299
Ti       2.62233340       0.98309874      37.72443313      -0.00309872       0.00051352       0.00312684
Ti       3.07140119       5.19103872      37.75707566       0.00351436       0.00468040      -0.00013536
Ti       4.65631256       2.95046744      38.55523340       0.00419136       0.00460707       0.00026793
Ti       4.18352078      -1.21985015      38.61104190       0.00319009       0.00834326      -0.00380295
Ti       1.83014986       3.15791524      39.51165822      -0.00102178       0.00234379       0.00077395
Ti       5.28807154       5.58959688      39.54138153       0.00486177       0.00527986       0.00234643
Ti       3.57772315       0.91237302      40.36786136       0.00640897       0.00494090      -0.00785992
Ti       6.79330361       3.28473323      40.39963980       0.00337188       0.00330305      -0.00083437
Ti       4.08922407       3.60236375      41.21818605       0.00445239       0.00228380      -0.00264228
Ti       5.07725838      -1.31608284      41.25225856      -0.00160538       0.00440416      -0.00297245
Ti       2.33522075      -1.13299997      42.42540623       0.00036568      -0.00063768      -0.00332057
Ti       5.72588832       1.28828365      42.39635834       0.00317735       0.00170006      -0.00361860
Ti       2.87319088       1.60532165      42.95402944       0.00260932       0.00537168      -0.00748499
Ti       3.39268455       5.71444376      42.95037350       0.00479573       0.00470663      -0.00870094
Ti       4.70617799       3.49788588      43.95607829      -0.00329884       0.00032647      -0.00354552
Ti       4.73948223      -0.85669560      43.98743930       0.00391986      -0.00265611      -0.00390071
Ti       1.60733198      -0.54494409      45.33280305       0.00175240      -0.00015446       0.00561539
Ti       2.12329678       3.50511095      45.30708939       0.00149773       0.00085271       0.00641977
Ti       3.79719151       1.30599735      45.51807432      -0.00080488      -0.00218849      -0.00786258
Ti       7.04646813       3.77138508      45.49578014      -0.00243689      -0.00233964      -0.00497280
Ti       4.58829980       3.68444860      46.77972637       0.00381175      -0.00241439      -0.00253396
Ti       4.94365441      -0.87182316      46.79992324      -0.00288217       0.00181231      -0.00218802
Ti       2.46341769      -0.97041490      48.21734754      -0.00278515      -0.00424925      -0.00311555
Ti       5.74006148       1.49118647      48.20451207      -0.00119467      -0.00329373      -0.00379869
Ti       2.99036416       1.82398431      48.08554746       0.00120189      -0.00146984      -0.00360812
Ti       3.47021843       5.89830559      48.07069739       0.00014506       0.00016629      -0.00402948
Ti       5.03833533      -0.93853144      49.59205657       0.00310240      -0.00657235       0.00364071
Ti       4.47234247       3.73648000      49.57444773      -0.00323760      -0.00082165       0.00242881
Ti       2.11322927       3.50531674      51.26045304       0.00234518      -0.00518256       0.00213281
Ti       1.58564100      -0.54290915      51.27574788      -0.00536557      -0.00137918       0.00173543
Ti       7.06176298       3.67375634      50.67141733       0.00330616      -0.00685970       0.01257915
Ti       3.68564581       1.27293442      50.68696214      -0.00736777      -0.00148228       0.01366916
Ti       4.50042302      -0.85059752      52.23492584       0.00153997      -0.00754207       0.00656664
Ti       4.81398649       3.32105695      52.21901381      -0.00555696      -0.00295882       0.00723440
Ti       3.32137775       5.46161586      53.08831393      -0.00366454      -0.00688771       0.00376864
Ti       2.67318975       1.48232411      53.10319231      -0.00317196      -0.00833701       0.00277527
