64
Lattice="5.088765 0.0 0.0 0.0 9.739025 0.0 0.0 0.0 38.303587" Properties=species:S:1:pos:R:3:forces:R:3 job_name=Segregation-1sol-addvac-T2-V-V-42-d-3.50 top_level=Segregation-1sol-addvac solute=V energy=-484.60454808 stress_kbar_3x3="_JSON [[-10.70179464, 6.97896966, 0.14830211], [6.97896965, -13.75940773, 2.60440061], [0.14830215, 2.60440059, -1.64807123]]" pbc="T T T"
Ti       0.27779608       4.58087184       8.64042689      -0.00287224      -0.01046647       0.00510706
Ti       2.82480867       9.44176173       8.64336455      -0.00612841      -0.00593937      -0.00295605
Ti       0.89025759       1.65987525       9.20885258       0.00265243      -0.00040310      -0.00388741
Ti       3.43906676       6.53105767       9.21009606      -0.00121186      -0.00586222      -0.00764431
Ti       0.12641493       8.82057183       9.80470025       0.00427324      -0.00985851       0.00457557
Ti       2.67615597       3.95459916       9.80459405      -0.00084511      -0.01116554       0.00438694
Ti       3.66822826       1.35380724      10.55741854      -0.00370780      -0.00819143       0.00831957
Ti       1.12598365       6.22200980      10.55534097      -0.00161806      -0.01192348       0.00631748
Ti       0.24990911       3.56115546      11.13984767      -0.00258568      -0.00030886       0.01051444
Ti       2.79145244       8.43049683      11.13969305      -0.00501210      -0.00559375       0.01497728
Ti       1.05621626       0.89550784      11.83035867       0.00233546      -0.00942874       0.01558522
Ti       3.60185122       5.76357664      11.83414426       0.00060230      -0.01118113       0.01248932
Ti       0.25376381       7.96378703      12.58767268      -0.00084821      -0.00700825       0.00582818
Ti       2.79830834       3.09625633      12.58990880       0.00067194      -0.00219721       0.00684602
Ti       3.57378017       0.38121254      13.28013520       0.00187708      -0.00740314       0.00377753
Ti       1.02999421       5.24697411      13.28423191       0.00190700      -0.00706692       0.00100320
Ti       0.19608014       2.57344968      13.98505538      -0.00267370      -0.00605602      -0.00281099
Ti       2.73942624       7.44564487      13.98868088       0.00080350      -0.00722483      -0.00454912
Ti       1.09694172       9.68001651      14.69829944      -0.00001890      -0.00094446      -0.00271518
Ti       3.64290104       4.80551557      14.71236705       0.00420001      -0.00283954      -0.00495123
Ti       0.16678034       7.04242867      15.29423108       0.00160207      -0.00517503       0.00058072
Ti       2.71227504       2.17161051      15.29078895       0.00305355      -0.00406050      -0.00067884
Ti       3.65951748       9.32409039      16.03259746      -0.00116780      -0.00144129      -0.00419116
Ti       1.11224034       4.44036179      16.03097693      -0.00144556      -0.00418301      -0.00450562
Ti       2.84796795       6.63338258      16.73986524      -0.00060211      -0.00583313      -0.00025890
Ti       0.31522558       1.77442704      16.74318064       0.00163095      -0.00219772      -0.00181227
Ti       0.93885108       8.61745944      17.37195605       0.00512172      -0.00051841       0.00056814
Ti       3.45651234       3.72289619      17.40113928       0.00302385      -0.00196894       0.00712014
Ti       0.03309772       5.80809153      18.21602238      -0.00178431      -0.00118052       0.00169168
Ti       2.57819441       0.95413815      18.25228304      -0.00176460       0.00502292      -0.00009003
Ti       3.82926571       8.06943242      18.99878980      -0.00153790       0.00120306       0.00108490
Ti       1.26023229       3.20650474      19.04041141      -0.00168567      -0.00063591       0.00224953
Ti       0.01907686       0.75859023      19.31878375      -0.00192436       0.00480133      -0.00129814
Ti       2.55987762       5.62748970      19.33342126       0.00121828      -0.00341952       0.00024733
Ti       1.28930399       8.18529901      20.07182322      -0.00163039      -0.00097117       0.00374225
Ti       3.78933937       3.28599399      20.12341563      -0.00106617       0.00107464      -0.00560342
Ti       4.71672190       6.08004049      20.90431552       0.00104049       0.00050711      -0.00332096
Ti       2.14682594       1.11144125      20.97799762       0.00188795       0.00524677      -0.00351784
Ti       4.27224483       9.10488732      21.61134769      -0.00457619       0.00169648       0.00430007
Ti       1.63222321       4.24756376      21.61397544       0.00348285       0.00404540      -0.00454634
Ti       2.44214310       6.99324565      22.31389592       0.00272799       0.00598655       0.00485915
Ti       5.03154142       2.00965909      22.32799167      -0.00322572       0.00215626      -0.00020753
Ti       3.94693044       4.59124920      23.04945621       0.00081087       0.00694232       0.00347657
V        1.35194485       9.47869453      23.14708315       0.00277089       0.00506871       0.00619098
Ti       2.45698615       2.29300308      23.52192598       0.00497369      -0.00055113       0.00496894
Ti       4.99565176       7.16230708      23.52232226      -0.00261703       0.00330280      -0.00041031
Ti       3.94790182      -0.00466374      24.26931132      -0.00503272       0.00160073       0.00623153
Ti       1.44803606       4.91388523      24.28416518      -0.00026826       0.00881940       0.00331549
Ti       2.26264112       7.58917009      25.00083065       0.00230773       0.00168683      -0.00090897
Ti       4.83338946       2.68759958      25.01180592       0.00098156       0.00573291       0.00624126
Ti       1.52968956       0.60743811      25.66111516      -0.00114742       0.01045610      -0.00451262
Ti       4.09367949       5.46248177      25.70255787      -0.00265082      -0.00223294      -0.00566356
Ti       4.90175664       8.10791342      26.46769813       0.00257503       0.00585618      -0.01673386
Ti       2.36768925       3.23308511      26.46320779       0.00719809       0.00422530      -0.00796490
Ti       4.04311063       0.99032937      27.14425107       0.00741671       0.01076254      -0.00697055
Ti       1.50350393       5.87195562      27.16533619      -0.00394972       0.00545868      -0.01686456
Ti       2.40631578       8.51209997      27.69922919      -0.00068988       0.01072453      -0.01559221
Ti       4.96253523       3.62596064      27.70610371      -0.00468667       0.01175312      -0.01311632
Ti       1.40203706       1.36049636      28.46262121       0.00058448       0.00076708      -0.00131924
Ti       3.94990161       6.22721709      28.47334154       0.00658539       0.00891624      -0.00618955
Ti       4.68984606       8.81534143      29.08582099       0.00105393       0.01524869      -0.00685494
Ti       2.15066045       3.94483107      29.08759245      -0.00350375       0.00347806       0.00246326
Ti       4.08167155       2.00738192      29.63705641       0.00207099       0.00053600      -0.00379467
Ti       1.56091350       6.87572043      29.64743786      -0.00896288       0.01235544       0.00738185
