52
Lattice="4.6568 0.0 0.0 0.0 7.770572 0.0 0.0 0.0 41.044546" Properties=species:S:1:pos:R:3:forces:R:3 job_name=Segregation-1sol-addvac-CSL7-Al-Al-29-d-2.09 top_level=Segregation-1sol-addvac solute=Al energy=-389.93239147 stress_kbar_3x3="_JSON [[-14.75194827, -1.24811769, 1.03039947], [-1.24811769, -17.53131094, -0.65570475], [1.03039946, -0.65570469, -1.31894943]]" pbc="T T T"
Ti       2.28129754       7.26062071       8.67612914      -0.00217096       0.00150450      -0.01336219
Ti       4.62121442       5.37249293       8.92034375      -0.00150900      -0.00805544      -0.00705359
Ti       2.28280338       2.25780327       9.44690863      -0.00189958       0.00835133       0.00149731
Ti       4.61331325       0.54684116       9.78361769      -0.00177758       0.00915184       0.00953765
Ti       2.28836443       4.98489413      10.40585692      -0.00152189      -0.00445646       0.00987046
Ti       4.61503809       3.38653927      10.72376205      -0.00194060      -0.00011976       0.00888985
Ti       2.28369079       0.10719771      11.33778642      -0.00091962       0.00288680       0.00555011
Ti       4.61641055       6.14294637      11.57239072      -0.00192583      -0.00152601       0.00884028
Ti       2.28031556       2.79203534      12.25959581      -0.00178886       0.00363737       0.00313939
Ti       4.61008577       1.12831146      12.61903576      -0.00189881      -0.00275692       0.00034512
Ti       2.28069125       5.59235423      13.16846563      -0.00221215       0.00175118       0.00549091
Ti       4.60214421       3.92711041      13.55813868      -0.00097414      -0.00333819       0.00777097
Ti       2.28367360       0.59665445      14.21014187      -0.00372080      -0.00024267       0.00381547
Ti       4.61247558       6.67945765      14.44412154      -0.00251698       0.00214885       0.00546357
Ti       2.26074973       3.35304046      15.14028678      -0.00168495      -0.00012816       0.00179839
Ti       4.60572220       1.71207802      15.48928968      -0.00181527      -0.00102061      -0.00035638
Ti       2.27452785       6.12322916      15.99055324       0.00242546       0.00402614       0.00738544
Ti       4.53574765       4.46994000      16.46519320      -0.00246685       0.00149238      -0.00147619
Ti       2.30304877       1.13571114      17.08847964       0.00202241       0.00284871       0.00052428
Ti       4.59573691       7.24304975      17.23549972      -0.00456627       0.00151685      -0.00802593
Ti       2.15272239       3.84652008      18.04339982       0.00272118       0.00925148       0.00918086
Ti       0.07642931       2.20141329      18.43094499      -0.00360478      -0.00058650      -0.00016307
Ti       2.20356361       6.63410612      18.70262191       0.00538117      -0.00362888      -0.00180915
Ti       4.03915710       4.84852801      19.34147133      -0.00321331       0.00225003      -0.01492789
Ti       2.73402056       1.69152623      20.04803851      -0.00404249       0.00210063       0.00130031
Ti       0.33735914       7.73029313      20.06399024       0.00086984       0.00264691       0.00430236
Ti       1.11124191       4.97304655      20.83573028      -0.01055847       0.00360859       0.01413515
Ti       3.09576493       6.67792411      21.40217919      -0.00056912       0.00085516      -0.00531462
Ti       0.72985982       2.25057632      21.69955027       0.00622630      -0.00053082       0.00527593
Al       3.23097908       3.87404328      22.03468388      -0.00745600       0.00028580      -0.01377968
Ti       0.76312184       7.28511421      22.87588508       0.00566302      -0.00306706       0.00284587
Ti       3.12664962       1.19619525      23.03048499       0.00080964       0.00052389       0.00078965
Ti       0.86276207       4.43490378      23.58952348       0.00127381      -0.00331364       0.00310925
Ti       3.07655768       6.11478170      24.05119974       0.00162264      -0.00352085       0.00164301
Ti       0.80719961       1.67077644      24.66748834       0.00274293      -0.00108057       0.00710713
Ti       3.14100287       3.33761996      24.92005863       0.00391872       0.00677340       0.00371202
Ti       0.76059457       6.61799548      25.62560193       0.00108567      -0.00434125       0.00123313
Ti       3.11015201       0.54893817      25.89862733       0.00218217      -0.00254636       0.00153992
Ti       0.78900198       3.88515939      26.51971366       0.00278188      -0.00044959      -0.00081254
Ti       3.10170680       5.53582724      26.88849340       0.00115844      -0.00422704      -0.00763753
Ti       0.77508500       1.09671813      27.51799605       0.00164604       0.00043064      -0.00102501
Ti       3.10170091       2.77259320      27.79730808       0.00208675      -0.00079860      -0.00530321
Ti       0.77530654       6.06589519      28.46738312       0.00183198      -0.00706661      -0.00259274
Ti       3.10429531       7.74326836      28.77358964       0.00233691      -0.00241335      -0.00387983
Ti       0.77104872       3.33245981      29.41279256       0.00195810      -0.00384309      -0.00714419
Ti       3.10017214       5.04506100      29.73231205       0.00253429       0.00378720       0.00062212
Ti       0.77130011       0.57120151      30.32280897       0.00222363       0.00348141      -0.00646598
Ti       3.09858675       2.17597112      30.58987204       0.00144873      -0.00705610      -0.00623526
Ti       0.76712850       5.48563686      31.27732030       0.00148376       0.00648465      -0.00797236
Ti       3.09418698       7.21071671      31.58621744       0.00189633      -0.00594428      -0.01059851
Ti       0.76968613       2.58221570      32.08673510       0.00220533      -0.00854351      -0.00179851
Ti       3.09309077       4.45188839      32.38869992       0.00221716       0.00280657      -0.00898156
