64
Lattice="5.088765 0.0 0.0 0.0 9.739025 0.0 0.0 0.0 38.303587" Properties=species:S:1:pos:R:3:forces:R:3 job_name=Segregation-1sol-addvac-T2-Al-Al-34-d-0.63 top_level=Segregation-1sol-addvac solute=Al energy=-480.59278995 stress_kbar_3x3="_JSON [[-13.83134775, 0.61234353, -0.9557242], [0.61234351, -12.94427627, -1.16584146], [-0.95572422, -1.16584144, -1.89779592]]" pbc="T T T"
Ti       0.30664205       4.58199017       8.63164608       0.00782240       0.00390730      -0.00315766
Ti       2.84542106       9.44817825       8.63267795       0.01107097       0.00251738       0.00166653
Ti       3.47457440       6.54741020       9.18520586      -0.00240987       0.00222608       0.00542231
Ti       0.92629944       1.67885181       9.17828973      -0.00573306      -0.00610537       0.00787255
Ti       0.15363119       8.83762901       9.76845216      -0.00117159       0.00880167       0.00625781
Ti       2.69978304       3.96804888       9.77706205      -0.00103485       0.00322122       0.00742506
Ti       1.15692253       6.24700386      10.53054410       0.00301155      -0.00917576       0.00262385
Ti       3.69883678       1.38010861      10.52815094       0.00274127      -0.01538329       0.00089177
Ti       2.83889478       8.44320433      11.13176964       0.00744279       0.01173876      -0.00018976
Ti       0.29489633       3.57186424      11.12780465       0.00904967       0.00638578       0.00515011
Ti       1.08778428       0.89678742      11.79804385       0.00356470       0.00419120      -0.00184849
Ti       3.63732173       5.76515832      11.81228604       0.00243164       0.00473666       0.00295843
Ti       0.25882225       7.97857466      12.57410110       0.00023316       0.00546256       0.00445515
Ti       2.80219246       3.11407145      12.58793456      -0.00079955       0.00033460       0.00616240
Ti       1.09363714       5.32105617      13.26942970       0.00081320       0.00085399       0.00600848
Ti       3.63378415       0.45787709      13.27511231      -0.00078899       0.00133712       0.00511395
Ti       0.25584534       2.66114410      13.93034417       0.00141587       0.00248162       0.00576768
Ti       2.80030530       7.53169983      13.94529873       0.00295391       0.00424690       0.00822767
Ti       1.11841020       0.02517230      14.63519600       0.00285391       0.00338176       0.00726197
Ti       3.67356613       4.89809346      14.67067104       0.00201834       0.00325668       0.00742437
Ti       0.26908285       7.11596610      15.33352980       0.00022280       0.00484374       0.00390228
Ti       2.80913123       2.23913389      15.36933205       0.00167942       0.00156784       0.00188944
Ti       1.14296250       4.44464378      16.01814649       0.00067973       0.00298111       0.00097051
Ti       3.67050391       9.32551453      16.05150311       0.00018622       0.00274973       0.00067596
Ti       0.26723563       1.81774086      16.71469519      -0.00013641       0.00001008      -0.00026607
Ti       2.78996165       6.69419252      16.75000046       0.00227097       0.00453446      -0.00257432
Ti       1.11249978       8.90487257      17.38498821       0.00071622       0.00651032      -0.00051659
Ti       3.68264978       4.01307183      17.42826159       0.00009603       0.00636482       0.00018212
Ti       0.28452673       6.24163816      18.04534772      -0.00083076       0.00430869      -0.00399955
Ti       2.76254276       1.34033272      18.17239332      -0.00169946       0.00225774      -0.00277766
Ti       1.18321811       3.54156779      18.83154574      -0.00233310       0.00015919       0.00077100
Ti       3.79548651       8.36144795      18.85874144      -0.00239591       0.00031874       0.00070855
Ti       0.09417155       0.97204944      19.48042254       0.00074764      -0.00097255       0.00342433
Ti       2.51596988       5.81809402      19.62679752       0.00043484      -0.00175438       0.00706430
Ti       1.24062127       8.26826358      20.09595707       0.00230650       0.00060743       0.00151866
Al       3.81349487       3.38308153      20.14894939      -0.00098152       0.00012184       0.00417462
Ti       5.00571256       5.96827845      20.77056392      -0.00255158      -0.00580947       0.00305941
Ti       2.36150697       1.11472227      20.98766727      -0.00247410      -0.00576549       0.00458385
Ti       4.07632140       8.80059091      21.57815687      -0.00406399      -0.00524114       0.00833483
Ti       1.50133804       3.88628269      21.60661718       0.00086920      -0.00353944       0.01079682
Ti       4.82800361       1.76445906      22.23305000       0.00000523      -0.00159166       0.00555018
Ti       2.23666802       6.67459887      22.25932532       0.00000534      -0.00188989       0.00869834
Ti       3.92826181       4.44992306      22.91510807      -0.00265971       0.00198562       0.00142701
Ti       1.39424939       9.29068767      23.04752678      -0.00159430      -0.00188144       0.00075920
Ti       4.83235550       7.05211715      23.66590311      -0.00152009      -0.00140713       0.00146437
Ti       2.27312456       2.18759064      23.70012019      -0.00179026      -0.00026886       0.00134919
Ti       3.94676534       9.70935747      24.32263784       0.00128685      -0.00542247      -0.00051985
Ti       1.40790029       4.83213789      24.32295447      -0.00122339       0.00147216      -0.00074474
Ti       4.80409694       2.61893804      25.00830575      -0.00242566      -0.00448752       0.00027781
Ti       2.27196182       7.47327635      25.04115519      -0.00210650      -0.00802703      -0.00070909
Ti       3.99461458       5.28239554      25.70944411      -0.00369170      -0.00091817      -0.00629355
Ti       1.44795940       0.41159482      25.75698575      -0.00382067      -0.00300817      -0.00533562
Ti       4.78541577       7.96519200      26.46845427       0.00018944      -0.00264038      -0.00791686
Ti       2.24230448       3.10100833      26.48733294       0.00078691      -0.00032195      -0.00366768
Ti       4.01084066       0.90890009      27.17216525       0.00214563       0.00450197      -0.01206833
Ti       1.46713017       5.78039112      27.17609165       0.00322160       0.00845029      -0.00916249
Ti       4.86922648       3.57433802      27.76770640      -0.00220650      -0.01033342      -0.01166655
Ti       2.32787019       8.44205310      27.79532200      -0.00477089      -0.01565946      -0.00524980
Ti       3.88889072       6.16640664      28.51163646      -0.00722872       0.00449064      -0.01265207
Ti       1.34133567       1.31182163      28.53125759      -0.00295826       0.00259620      -0.01198424
Ti       4.67146956       8.74589002      29.10372507      -0.00187620      -0.00816688      -0.01467990
Ti       2.10937188       3.88593243      29.10963874      -0.00623656      -0.00156855      -0.01461184
Ti       4.03564134       1.91882914      29.67839783       0.00042953      -0.00494484      -0.01108479
Ti       1.50360049       6.77738169      29.68694000      -0.00018933      -0.00362916      -0.01859535
