64
Lattice="5.872 0.0 0.0 0.0 6.890708 0.0 0.0 0.0 43.394398" Properties=species:S:1:pos:R:3:forces:R:3 job_name=Segregation-1sol-addvac-T1g-Al-Al-35-d-1.29 top_level=Segregation-1sol-addvac solute=Al energy=-482.9369795 stress_kbar_3x3="_JSON [[-5.98430709, -0.00035409, 1.458e-05], [-0.00035407, -19.0701424, 2.1117859], [1.457e-05, 2.11178591, -0.88720019]]" pbc="T T T"
Ti      -0.00000541       3.38683632       8.89400863      -0.00003288      -0.00016315      -0.00128244
Ti       2.93598796       3.38596295       8.89903908       0.00002721      -0.00069532      -0.00096307
Ti       2.93594986       6.47155937       9.30056298      -0.00001951      -0.00332949      -0.00290962
Ti      -0.00002733       6.47308965       9.30054692       0.00004412      -0.00305548      -0.00262480
Ti       1.46452693       1.73743502      10.49236062      -0.00035338      -0.00397557       0.00038658
Ti       4.40747693       1.73746469      10.49240010       0.00034851      -0.00398026       0.00028201
Ti       1.46624236       4.66195527      10.84845460      -0.00010128       0.00145811       0.00076731
Ti       4.40570311       4.66198303      10.84841247       0.00010021       0.00147005       0.00063535
Ti       2.93600038       6.75478289      12.10954951      -0.00003479      -0.00396833       0.00405549
Ti       0.00004175       6.75534627      12.11452322      -0.00000179      -0.00369745       0.00171610
Ti       2.93598959       2.81660907      12.64785860      -0.00007376      -0.00137904       0.00681379
Ti       0.00001921       2.81428542      12.66296545       0.00004388      -0.00105983       0.00439699
Ti       4.40128222       4.96101357      13.79283424      -0.00092437      -0.00114894       0.00016827
Ti       1.47073740       4.96101403      13.79286263       0.00106287      -0.00124725       0.00011474
Ti       1.46918884       0.90274524      14.33785330       0.00082054      -0.00197635      -0.00314222
Ti       4.40281566       0.90275162      14.33782681      -0.00080335      -0.00204303      -0.00311315
Ti       2.93601062       3.05043201      15.47033725      -0.00005927      -0.00154070      -0.00477611
Ti       0.00001568       3.04133461      15.49325214       0.00004005      -0.00023153      -0.00185180
Ti       0.00000485       5.95579311      16.03375705      -0.00004395      -0.00336283      -0.00388250
Ti       2.93599618       5.95000755      16.05617715       0.00002125      -0.00345633      -0.00692584
Ti       4.38827697       1.19751573      17.23151807       0.00116179      -0.00275464      -0.00498983
Ti       1.48373671       1.19752554      17.23154693      -0.00111967      -0.00269776      -0.00502974
Ti       4.37316728       4.05423774      17.70569571       0.00284910      -0.00347062      -0.00278659
Ti       1.49883467       4.05423643      17.70569266      -0.00281524      -0.00346636      -0.00278062
Ti       0.00001538       6.12237381      18.85594132      -0.00001530      -0.00726835      -0.00463292
Ti       2.93600998       6.18667438      18.89763828      -0.00001185      -0.00476842      -0.00174844
Ti      -0.00001414       2.33617676      19.36251720       0.00002184       0.00301669       0.00235156
Ti       2.93602352       2.32809469      19.44753907      -0.00001490      -0.00039802       0.00646827
Ti       1.46344144       4.40975582      20.80415385       0.00098539      -0.00338879       0.00740289
Ti       4.40861735       4.40972854      20.80413564      -0.00103358      -0.00342735       0.00741786
Ti       1.43471971       0.42387601      20.90261105       0.00423366      -0.00261585      -0.00186361
Ti       4.43728144       0.42385266      20.90264573      -0.00422542      -0.00260504      -0.00187210
Ti       0.00000522       2.36938170      22.19939785      -0.00005502      -0.00210383       0.00463123
Al       2.93601756       2.37157801      22.25834090       0.00007411      -0.00830494       0.00142368
Ti       2.93594418       6.01687846      22.84726944       0.00007369       0.00469457       0.00178284
Ti       0.00002841       5.96054375      22.85371536       0.00007698      -0.00286398       0.00539671
Ti       4.37753867       3.91354894      24.06032118       0.00254340       0.00687566      -0.00541273
Ti       1.49449380       3.91351022      24.06034083      -0.00257780       0.00711768      -0.00525467
Ti       4.40291293       1.10714344      24.40702938       0.00140094       0.00218791       0.00447711
Ti       1.46912373       1.10714896      24.40705251      -0.00144150       0.00198673       0.00447852
Ti       2.93601326       5.85621268      25.64004542       0.00003567      -0.00173193      -0.00457486
Ti       0.00003321       5.85002607      25.64523123      -0.00003500      -0.00350804      -0.00732480
Ti      -0.00000087       2.89645751      26.22993794       0.00001073       0.00851160      -0.00710281
Ti       2.93605003       2.91420792      26.26976660      -0.00011473       0.00661657      -0.00522269
Ti       4.40785576       0.73728801      27.35854826      -0.00063846       0.00217211       0.00187298
Ti       1.46418784       0.73730119      27.35859587       0.00063627       0.00227294       0.00165322
Ti       4.40265008       4.79081324      27.88802049       0.00002986       0.00411088       0.00709784
Ti       1.46938894       4.79079695      27.88802576      -0.00009282       0.00404296       0.00701146
Ti       0.00002911       2.61345723      29.04301083      -0.00001776       0.00159475       0.01352873
Ti       2.93602420       2.61693103      29.06530955       0.00003381       0.00181753       0.01295870
Ti       0.00003705       6.63544520      29.61729172      -0.00007733       0.00341625       0.01006584
Ti       2.93602127       6.63565426      29.61561141       0.00005561       0.00331494       0.00865112
Ti       1.46588812       4.48760127      30.75578899      -0.00003609       0.00332883       0.00655011
Ti       4.40617367       4.48759129      30.75579410       0.00003170       0.00333436       0.00652438
Ti       4.40740384       1.55400804      31.26533635      -0.00006052       0.00859951      -0.00444388
Ti       1.46465093       1.55400266      31.26533063       0.00013284       0.00855190      -0.00464221
Ti       2.93603661       6.34951251      32.54034017      -0.00015661       0.00878702      -0.01228416
Ti       0.00000651       6.34886711      32.54431267       0.00004384       0.00867675      -0.01321551
Ti       0.00002650       3.40320626      32.91539069      -0.00003362      -0.00690134      -0.00766195
Ti       2.93599780       3.39969102      32.90869806       0.00005058      -0.00754544      -0.00856125
Ti       1.46821655       1.26158779      34.09989322       0.00045304      -0.00016497       0.00019973
Ti       4.40381189       1.26164366      34.09994144      -0.00044485      -0.00026072      -0.00008810
Ti       4.40108541       5.06370343      34.48987308      -0.00020065       0.00127869       0.00093029
Ti       1.47092663       5.06365293      34.48991242       0.00022357       0.00132229       0.00075332
