64
Lattice="5.088765 0.0 0.0 0.0 9.739025 0.0 0.0 0.0 38.303587" Properties=species:S:1:pos:R:3:forces:R:3 job_name=Segregation-1sol-addvac-T2-Al-Al-38-d-2.12 top_level=Segregation-1sol-addvac solute=Al energy=-480.74341372 stress_kbar_3x3="_JSON [[-12.35022926, 2.77625017, -0.17999056], [2.77625017, -12.59288804, 1.08951779], [-0.17999056, 1.08951781, -1.0617989]]" pbc="T T T"
Ti       2.82808843       9.43159222       8.65491047       0.00443915      -0.00093464       0.01489732
Ti       0.29077682       4.56718244       8.64835314       0.00417169      -0.00199518       0.01814799
Ti       0.90440479       1.66368062       9.20279841      -0.00572315       0.00131232       0.01341432
Ti       3.45721074       6.52967079       9.21457622      -0.00536491      -0.00298585       0.01181983
Ti       0.13424873       8.82175695       9.80074955       0.00126149      -0.01078052       0.01389874
Ti       2.68267080       3.95143590       9.80500624       0.00105755      -0.00915505       0.01475428
Ti       1.13291051       6.22743138      10.55398175       0.00413610      -0.01174329       0.00877762
Ti       3.67482845       1.36106903      10.55561191       0.00463937      -0.00636259       0.01356879
Ti       0.26977862       3.55672000      11.14885982      -0.00504633      -0.00625843       0.00249699
Ti       2.81265771       8.42277057      11.15729973      -0.00425885      -0.00616947       0.00456104
Ti       1.06338263       0.88016880      11.82282744      -0.00151501      -0.00067433       0.00497560
Ti       3.60749002       5.74564874      11.84252449      -0.00060450      -0.00329146       0.00305979
Ti       0.24660750       7.94665730      12.59290984       0.00257024      -0.00057343       0.00306594
Ti       2.78685576       3.08525049      12.60690650       0.00164833      -0.00118390       0.00156010
Ti       3.60113213       0.41073230      13.29173682      -0.00055167      -0.00560130       0.00309473
Ti       1.05730470       5.27114102      13.29539163       0.00014298      -0.00615676       0.00148112
Ti       0.21816014       2.60481297      13.96125050       0.00153258      -0.00666372       0.00066687
Ti       2.76332559       7.47217265      13.97740714       0.00172358      -0.00595755       0.00634521
Ti       1.09940492       9.71323168      14.65696818       0.00183566      -0.00551037       0.00546285
Ti       3.64950354       4.82991431      14.70039153       0.00016244      -0.00293942       0.00155388
Ti       0.21439501       7.04847545      15.33597810       0.00150810      -0.00163762       0.00444262
Ti       2.75348927       2.18732237      15.36490500      -0.00018230      -0.00552144       0.00102130
Ti       3.65008896       9.29655410      16.03952175       0.00059922      -0.00550330      -0.00174033
Ti       1.09921462       4.40939146      16.04037241       0.00176204      -0.00218903       0.00184717
Ti       0.24527510       1.75577244      16.73065891       0.00273481      -0.00434968      -0.00219430
Ti       2.80374008       6.60380315      16.75651557       0.00013168      -0.00013691      -0.00467072
Ti       1.05639677       8.75843879      17.35413475       0.00254792      -0.00411755      -0.01236086
Ti       3.59231363       3.87078100      17.47849355       0.00188369      -0.00144747      -0.00000642
Ti       0.15949971       6.02909450      18.13258441       0.00294797      -0.00311520      -0.00443005
Ti       2.61567341       1.11241495      18.19899382       0.00049061       0.00333814      -0.00308049
Ti       3.86269625       8.23296969      18.86991959       0.00071555      -0.00049299      -0.00557795
Ti       1.26415688       3.37455009      18.88652128      -0.00171297      -0.00021373       0.00175868
Ti       0.04467368       0.89335826      19.39324394       0.00186661       0.01000469       0.00176789
Ti       2.60056016       5.76350513      19.49527560      -0.00027554      -0.00411347       0.00370281
Ti       1.33481400       8.32215828      20.09373098       0.00190880       0.00075261       0.00335127
Ti       3.92387483       3.47099669      20.22889283       0.00073821       0.00256683       0.00619270
Ti       4.94641891       6.24588425      20.88738610       0.00028106      -0.00635748       0.00683719
Ti       2.27304079       1.35775798      20.90732194       0.00033244       0.01383818       0.00747395
Ti       4.03788064       8.97499126      21.54645399      -0.00122145       0.00421775       0.00848559
Al       1.49638389       4.04768345      21.58004078      -0.00078677       0.00129288       0.00223447
Ti       2.37364614       6.70308432      22.22311539       0.00055370      -0.00224601       0.00207456
Ti       4.95969041       1.86445097      22.35044773       0.00237897       0.01314464      -0.00044000
Ti       1.46177229       9.34008682      22.93070429      -0.00121736       0.00490300       0.00167054
Ti       4.04364050       4.49109548      22.92927251      -0.00129255      -0.00100383      -0.00503294
Ti       2.39125063       2.25764507      23.60610888      -0.00127096       0.00352298      -0.00869831
Ti       4.86970082       7.16328677      23.62388895      -0.00246478      -0.00286819      -0.00232222
Ti       1.42867774       4.86916723      24.31014422       0.00008772      -0.00069922      -0.01078305
Ti       3.98923739       0.01691347      24.34577274      -0.00052844       0.00633605      -0.00123327
Ti       2.28079287       7.54704325      24.99982166      -0.00401655       0.00665846      -0.00648186
Ti       4.81608552       2.68264691      25.04967268      -0.00367717       0.00201141      -0.01171955
Ti       1.46487057       0.48203136      25.66795618       0.00398967       0.00643962      -0.00832151
Ti       3.99591295       5.34599222      25.67871444       0.00415096       0.00643049      -0.01266979
Ti       4.83809981       7.99969289      26.47956973      -0.00260825       0.00822386      -0.00669375
Ti       2.28544657       3.13503865      26.48313643      -0.00320964       0.00063625      -0.00943149
Ti       1.47689040       5.79969893      27.13042393      -0.00694316       0.00210177      -0.00904693
Ti       4.03274496       0.93113194      27.15473031      -0.00852504      -0.00348122      -0.00741468
Ti       2.34985172       8.47851375      27.72802573       0.00452855       0.00865117      -0.00826030
Ti       4.88525637       3.61514286      27.75833623       0.00305868       0.00309717      -0.00709674
Ti       1.35167598       1.32783635      28.48895064       0.00103522       0.00284933      -0.00948453
Ti       3.88560083       6.19597294      28.48375719       0.00177677       0.00865563      -0.00638663
Ti       4.65937325       8.77508794      29.09569900      -0.00468697       0.00870326      -0.01104815
Ti       2.11742056       3.91187535      29.10104439      -0.00441523       0.00504620      -0.00815594
Ti       1.49374043       6.80815032      29.63107516       0.00001679       0.00741600      -0.00702217
Ti       4.04887970       1.94015969      29.65300896       0.00075266       0.00228089      -0.00865885
