52
Lattice="4.6568 0.0 0.0 0.0 7.770572 0.0 0.0 0.0 41.044546" Properties=species:S:1:pos:R:3:forces:R:3 job_name=Segregation-1sol-addvac-CSL7-V-V-24-d-0.00 top_level=Segregation-1sol-addvac solute=V energy=-393.21675661 stress_kbar_3x3="_JSON [[-10.90900868, -0.1625088, 1.01067323], [-0.16250881, -14.8606689, -0.08848879], [1.01067321, -0.08848878, -0.16639267]]" pbc="T T T"
Ti       2.30746916       4.50236329       8.34671521      -0.00631457       0.00359789       0.00262658
Ti       2.30510904       7.04161910       9.00949562      -0.00129986       0.00907499       0.00329351
Ti       4.63003226       5.52513240       9.47167054      -0.00279263       0.00749411      -0.00164437
Ti       2.29146603       2.34175175      10.08096938      -0.00468483      -0.01577593      -0.00569171
Ti       4.62130193       0.49498554      10.33580988      -0.00347905      -0.00524424      -0.00951315
Ti       2.29370491       5.01887406      10.95409133      -0.00151771      -0.00495364      -0.00405186
Ti       4.61864775       3.35503690      11.22248509      -0.00195809      -0.00200591      -0.00305169
Ti       2.28952619       0.04124875      11.79214656      -0.00415443       0.00483638      -0.00689591
Ti       4.61689209       6.11259065      12.20576845      -0.00328565       0.00632721       0.00058448
Ti       2.28649338       2.79516771      12.81569394      -0.00317109      -0.00325587       0.00517664
Ti       4.61461333       1.10901436      13.12327460      -0.00377035      -0.00622237      -0.00275770
Ti       2.28292761       5.58891774      13.75849592      -0.00368687       0.00438909       0.00484145
Ti       4.60789257       3.90166841      14.09844156      -0.00363439      -0.00208057       0.00760333
Ti       2.28157253       0.56838431      14.73606433      -0.00362172      -0.00293876       0.00680648
Ti       4.62018647       6.65062616      15.02605623      -0.00240255      -0.00396190       0.01019891
Ti       2.26617201       3.34296799      15.69570483      -0.00305735       0.00196077       0.00883783
Ti       4.60007558       1.69943052      16.00863204      -0.00242990       0.00399545       0.00902065
Ti       2.28928425       6.10281825      16.56004228      -0.00213973      -0.00603365       0.00438248
Ti       4.54225569       4.43164316      17.00466493      -0.00325134       0.00632362       0.00052718
Ti       2.26187854       1.13038399      17.62539534       0.00247753      -0.00592277       0.00214698
Ti       4.60475417       7.24191746      17.76717827      -0.00249459       0.00075771      -0.00011780
Ti       2.14335513       3.80106516      18.65075440      -0.00269403       0.00404674      -0.00736247
Ti       0.00739764       2.21010008      19.00041245      -0.00444300      -0.00078154      -0.00485572
Ti       2.25456277       6.66329519      19.21636811      -0.00219000      -0.00036711      -0.00016247
Ti       4.19723381       4.90804801      19.76484067       0.00271579       0.00585117      -0.00147852
V        2.72071365       1.65121240      20.51516263      -0.00163733       0.00122147       0.00288481
Ti       0.42216226       7.75870544      20.57364209       0.00475780       0.00250664       0.00785289
Ti       1.22387316       4.91514530      21.28129572       0.00134461       0.00443172       0.00848544
Ti       3.18160161       6.58960215      21.86638173       0.00155712       0.00134743       0.00762442
Ti       0.73232470       2.23738913      22.01970839       0.00144483       0.00282609       0.00452297
Ti       3.26377390       3.78507099      22.40968415       0.00426701       0.00268527       0.00590927
Ti       0.78128154       7.21781447      23.34340178       0.00220500      -0.00096113       0.00298654
Ti       3.10510271       1.11640768      23.34764283       0.00022426      -0.00595665       0.00099380
Ti       0.87259679       4.45962380      24.04302280       0.00402751       0.00464510      -0.00473465
Ti       3.11254100       6.10898527      24.55967806       0.00240589      -0.00515516      -0.00630430
Ti       0.79277021       1.70414120      24.98419513       0.00256136       0.00127477      -0.00852872
Ti       3.14599410       3.33321640      25.34131209       0.00261924      -0.00258402      -0.01493174
Ti       0.78010772       6.65706575      26.11046288       0.00218479       0.00464439      -0.01525659
Ti       3.12070959       0.59202124      26.27215232       0.00257984       0.00286686      -0.00761773
Ti       0.80398655       3.89703415      26.89848300       0.00235827      -0.00359430      -0.01169622
Ti       3.12033954       5.54214396      27.37485636       0.00290478       0.00397594      -0.00830065
Ti       0.78988152       1.16067253      27.86054298       0.00383040      -0.00965224      -0.00317761
Ti       3.12330091       2.83189879      28.25032603       0.00281674      -0.00467095      -0.00684210
Ti       0.78731786       6.03506503      28.91933737       0.00244990       0.00665384       0.00011755
Ti       3.11783746       0.01998448      29.13258756       0.00244991      -0.00328104      -0.00354162
Ti       0.78736515       3.42694758      29.83944941       0.00119561       0.00518576       0.00731215
Ti       3.11382813       5.12262131      30.31012894       0.00291668       0.00810347       0.00452306
Ti       0.78676317       0.56196134      30.62951290       0.00291191       0.00146914       0.01553658
Ti       3.11467110       2.23552735      30.92782477       0.00270140      -0.01194962       0.01234185
Ti       0.78212418       5.49593816      31.65839182       0.00331254       0.00276947       0.00636667
Ti       3.11444594       7.62389406      32.00077003       0.00290905      -0.00478026      -0.00710161
Ti       0.78627167       2.27149395      32.41690608       0.00398127      -0.00313288      -0.00788757
