64
Lattice="5.872 0.0 0.0 0.0 6.890708 0.0 0.0 0.0 43.394398" Properties=species:S:1:pos:R:3:forces:R:3 job_name=Segregation-1sol-addvac-T1g-Al-Al-43-d-4.72 top_level=Segregation-1sol-addvac solute=Al energy=-482.96286806 stress_kbar_3x3="_JSON [[-7.05867595, -0.00060336, 2.868e-05], [-0.00060336, -18.49195524, -1.26191061], [2.867e-05, -1.26191058, -1.70714298]]" pbc="T T T"
Ti       2.93599994       3.40710234       8.88497774      -0.00003673       0.00411304      -0.00739612
Ti      -0.00003362       3.40791312       8.88558826       0.00003759       0.00351294      -0.00743660
Ti       2.93599042       6.49662875       9.28239449      -0.00010157       0.00078071      -0.00516443
Ti       5.87196562       6.49627370       9.28208514       0.00009604       0.00064892      -0.00533703
Ti       1.46874825       1.76108529      10.47318968      -0.00024067       0.01366273      -0.01226694
Ti       4.40322658       1.76108165      10.47312369       0.00019942       0.01359982      -0.01215203
Ti       1.46800188       4.69085544      10.82910381      -0.00004947       0.00186856      -0.00150039
Ti       4.40394743       4.69080175      10.82916128       0.00009888       0.00202040      -0.00182729
Ti       2.93601728       6.78836309      12.09592654      -0.00024823      -0.00103477      -0.00045783
Ti       5.87197311       6.78866001      12.09447038       0.00027553      -0.00128569      -0.00021189
Ti       2.93600707       2.85284537      12.63441275      -0.00019294       0.01218508      -0.00395327
Ti       5.87196460       2.85347458      12.63728320       0.00014234       0.01213691      -0.00301164
Ti       1.46653696       5.00797816      13.78223415      -0.00011784       0.00157656       0.01245957
Ti       4.40545994       5.00798600      13.78221527       0.00010494       0.00135114       0.01266773
Ti       4.40598574       0.95425455      14.32248877       0.00004054       0.00596446       0.01821154
Ti       1.46601238       0.95428195      14.32242282      -0.00006890       0.00589536       0.01832357
Ti       2.93600798       3.11266804      15.46551266      -0.00000994       0.00374309       0.01260960
Ti       0.00001814       3.11407587      15.47031729      -0.00004271       0.00401410       0.01245628
Ti       2.93599966       6.01480073      16.03273124       0.00003246       0.00331985       0.00776548
Ti      -0.00000728       6.01297777      16.04850229       0.00003303       0.00293517       0.00849783
Ti       1.47008047       1.29462410      17.21410180      -0.00011111       0.00560138       0.00516394
Ti       4.40192899       1.29465775      17.21415379       0.00012508       0.00555920       0.00507241
Ti       4.40523798       4.13310454      17.71907208       0.00013757       0.00141246       0.00386712
Ti       1.46676820       4.13313413      17.71902631      -0.00009927       0.00140178       0.00388167
Ti       2.93602149       6.27950039      18.85125774       0.00016003       0.00464696       0.00065963
Ti       0.00001342       6.27524473      18.87786740      -0.00018074       0.00602666       0.00089376
Ti      -0.00000987       2.37645589      19.43171877      -0.00011132       0.00040629      -0.00042259
Ti       2.93601374       2.37483320      19.45178192       0.00015690       0.00160628      -0.00318287
Ti       1.48407838       4.50550549      20.69849695      -0.00008695      -0.00233766      -0.00526593
Ti       4.38794233       4.50549342      20.69853526       0.00016998      -0.00215492      -0.00545814
Ti       1.50567178       0.47741791      21.02000027      -0.00045261       0.00466664      -0.00007512
Ti       4.36637278       0.47741045      21.01998454       0.00045425       0.00459789       0.00004779
Ti       0.00005331       2.50271162      22.25895394      -0.00019464       0.00044122      -0.00272475
Ti       2.93601293       2.54391772      22.28495643       0.00015382       0.00109966      -0.00074712
Ti       0.00006749       5.82832662      22.76984341      -0.00019034      -0.00430852       0.00310537
Ti       2.93594396       5.82620311      22.85544290       0.00012818      -0.00463620       0.00210257
Ti       1.44142388       3.88223697      24.18268687       0.00025828      -0.00687498       0.00409800
Ti       4.43060527       3.88226604      24.18262382      -0.00033078      -0.00699157       0.00445202
Ti       4.39289465       0.97992656      24.30545737       0.00108601      -0.00016092      -0.00154605
Ti       1.47914260       0.97995027      24.30548494      -0.00109057      -0.00029357      -0.00157093
Ti       0.00002141       5.77532799      25.60826745       0.00009798      -0.00534445       0.00143771
Al       2.93602848       5.78790139      25.66168586      -0.00010874      -0.00556606      -0.00030745
Ti       0.00003340       2.69212751      26.24305820       0.00003504      -0.00476909      -0.00524932
Ti       2.93602669       2.79737727      26.25661705      -0.00004187      -0.00322796      -0.00143138
Ti       1.50038139       0.62153935      27.38376567      -0.00083509      -0.00376821      -0.00687350
Ti       4.37167861       0.62153094      27.38372874       0.00081857      -0.00359423      -0.00662172
Ti       4.39296355       4.70973585      27.86901203      -0.00064090      -0.00559818      -0.01115973
Ti       1.47906171       4.70970393      27.86903671       0.00072871      -0.00539183      -0.01116918
Ti       5.87199809       2.56378921      29.04282661       0.00012157      -0.00344690      -0.01604981
Ti       2.93602448       2.56647707      29.04322608      -0.00005912      -0.00534058      -0.01823704
Ti       0.00001098       6.56983659      29.63035205       0.00018442      -0.00558569      -0.00812250
Ti       2.93604154       6.59133864      29.67567234      -0.00014634      -0.00507635      -0.00836812
Ti       1.46385153       4.43359668      30.74881475       0.00031802       0.00367016       0.00381838
Ti       4.40819400       4.43356719      30.74876970      -0.00028129       0.00367455       0.00392887
Ti       4.40559198       1.52678221      31.28225300       0.00031066      -0.01260613       0.00414269
Ti       1.46643293       1.52678966      31.28217877      -0.00028797      -0.01254839       0.00447329
Ti      -0.00000057       6.30908340      32.53863401       0.00008668       0.00120669       0.00364956
Ti       2.93603657       6.31880138      32.56344622      -0.00014368      -0.00050974       0.00311064
Ti       2.93605656       3.38428411      32.92650230      -0.00022285      -0.00120663       0.00944283
Ti       0.00000047       3.37532281      32.93802197       0.00012555      -0.00086859       0.00980121
Ti       1.46075440       1.23228124      34.11014238      -0.00046739      -0.00867003      -0.00141957
Ti       4.41128683       1.23231962      34.11021754       0.00048827      -0.00889109      -0.00168359
Ti       4.40941024       5.04467074      34.50759155      -0.00016107      -0.00372015      -0.00092647
Ti       1.46264545       5.04464245      34.50754404       0.00014728      -0.00353759      -0.00081272
