64
Lattice="5.871999 0.0 0.0 0.0 6.890708 0.0 0.0 0.0 43.401158" Properties=species:S:1:pos:R:3:forces:R:3 job_name=Segregation-1sol-addvac-T1m-Al-Al-46-d-5.43 top_level=Segregation-1sol-addvac solute=Al energy=-482.95174611 stress_kbar_3x3="_JSON [[-7.08598957, -0.00061861, 0.00124278], [-0.00061856, -16.75611287, 0.42520773], [0.00124277, 0.42520772, -0.87829074]]" pbc="T T T"
Ti       1.46805633       4.99546870       8.90209686      -0.00024310      -0.00321849       0.00815664
Ti       4.40406757       4.99573318       8.89929978       0.00025182      -0.00307888       0.00864506
Ti       4.40406277       1.20315632       9.29832551       0.00026662      -0.00011240      -0.00540787
Ti       1.46807775       1.20200539       9.30091694      -0.00030001       0.00021943      -0.00462884
Ti       5.87009577       3.35415771      10.49650947       0.00064347       0.00787734      -0.01671614
Ti       2.93801173       3.35413929      10.49648740      -0.00061341       0.00799128      -0.01672119
Ti       2.93674613       6.28402273      10.84427833      -0.00021095      -0.01009953      -0.00950039
Ti       5.87137266       6.28404542      10.84432112       0.00029997      -0.01022216      -0.00997664
Ti       1.46800940       1.48253689      12.10953881      -0.00003704      -0.00402341       0.00375484
Ti       4.40404400       1.48358202      12.10814691       0.00001369      -0.00325998       0.00478805
Ti       1.46803725       4.45079959      12.65144587      -0.00014029       0.00302860       0.01066329
Ti       4.40404109       4.45008573      12.65615524       0.00016552       0.00408626       0.01032053
Ti       2.93711786       6.59739182      13.80501964       0.00028640      -0.01117469       0.01221287
Ti       5.87093900       6.59740749      13.80501726      -0.00026968      -0.01130079       0.01227047
Ti       2.93753023       2.54025006      14.33247950       0.00033931       0.00149667       0.00840564
Ti       5.87051362       2.54022112      14.33248614      -0.00029750       0.00175595       0.00840030
Ti       1.46802803       4.67313781      15.47242184      -0.00004071       0.00373148      -0.00359312
Ti       4.40401031       4.67336249      15.47919374       0.00003174       0.00318082      -0.00453252
Ti       1.46801321       0.73760587      16.04869022      -0.00003529      -0.00464497      -0.00045632
Ti       4.40401462       0.73620450      16.05988473       0.00010091      -0.00433200      -0.00093300
Ti       2.93318751       2.87959633      17.27805636      -0.00051671      -0.00276420       0.00419491
Ti       0.00284264       2.87959323      17.27803848       0.00047891      -0.00266845       0.00448000
Ti       2.93800822       5.71240434      17.68662568      -0.00032792       0.00011966       0.00346796
Ti       5.87002937       5.71238626      17.68662688       0.00028741       0.00028994       0.00352054
Ti       1.46804078       0.89855556      18.83834423      -0.00006327      -0.00593793       0.00120114
Ti       4.40400403       0.90069075      18.85599905       0.00003120      -0.00588982       0.00186001
Ti       4.40403014       4.09360053      19.43990718       0.00006054       0.00400623       0.00334352
Ti       1.46799149       4.10171875      19.46727181      -0.00005129       0.00408992       0.00419206
Ti       2.90689449       2.12756681      20.84435397      -0.00082824      -0.00237642      -0.00053976
Ti       0.02911967       2.12758663      20.84432705       0.00088004      -0.00272158      -0.00041872
Ti       0.00983164       6.18015870      20.87590065       0.00101222      -0.00004771       0.00059833
Ti       2.92617245       6.18016717      20.87591527      -0.00096536      -0.00009567       0.00056099
Ti       4.40401585       4.07846425      22.21899922       0.00006450       0.00259831       0.00319323
Ti       1.46802330       4.07938731      22.27374482      -0.00005928       0.00163326       0.00542283
Ti       4.40399325       0.90065374      22.85902379       0.00015018       0.00203410      -0.00081378
Ti       1.46800177       0.90277047      22.88103368      -0.00009383       0.00017739      -0.00101138
Ti       2.97087552       5.70564647      24.02053834      -0.00023420       0.00186514      -0.00734641
Ti       5.83714541       5.70560784      24.02053029       0.00017515       0.00237526      -0.00723099
Ti       5.84180215       2.90820426      24.46143054       0.00062084       0.00145568      -0.00700543
Ti       2.96621321       2.90818138      24.46142165      -0.00060879       0.00189321      -0.00704598
Ti       4.40401886       0.66048216      25.64169260       0.00023810       0.00230632      -0.00474879
Ti       1.46803145       0.78801198      25.66589535      -0.00029855       0.01107442      -0.00540864
Al       4.40397962       4.72184434      26.23132935       0.00022157      -0.00217684      -0.00477876
Ti       1.46799399       4.73004500      26.25725197      -0.00024301       0.00699521       0.00099614
Ti       5.84361468       2.56485716      27.36073822       0.00171454      -0.00104942      -0.00151167
Ti       2.96437261       2.56485576      27.36077718      -0.00161857      -0.00093490      -0.00192957
Ti       0.00731186       6.56007406      27.87847867       0.00406261      -0.00076030       0.00771717
Ti       2.92871193       6.56010079      27.87848307      -0.00420335      -0.00099336       0.00788058
Ti       4.40400205       4.40087920      29.04287080       0.00016903       0.00046488       0.00409319
Ti       1.46800559       4.40767008      29.11907407      -0.00016665      -0.00038527       0.00359646
Ti       4.40396500       1.55610314      29.58174137       0.00036620       0.00036119      -0.00515326
Ti       1.46803951       1.52731885      29.59635011      -0.00029158       0.00437375      -0.00701383
Ti       2.94763217       6.28587911      30.75317742      -0.00283263       0.00439676      -0.00782563
Ti       5.86036063       6.28588796      30.75312926       0.00273276       0.00459433      -0.00792514
Ti       2.94974973       3.33195215      31.27068818      -0.00461631       0.00066087      -0.00767868
Ti       5.85824244       3.33196435      31.27067640       0.00470174       0.00029871      -0.00753125
Ti       1.46806120       1.24607647      32.54899527      -0.00015039       0.00977846       0.01404935
Ti       4.40392586       1.25085508      32.54165935       0.00011125       0.01257000       0.01164346
Ti       1.46804882       5.19465438      32.89050127       0.00023718      -0.00473966       0.01642958
Ti       4.40392901       5.18979519      32.91580186      -0.00034084      -0.00524826       0.01431305
Ti       2.93422096       3.05666483      34.09995015      -0.00158005      -0.00198197      -0.00635929
Ti       0.00174322       3.05672705      34.10008114       0.00158742      -0.00179067      -0.00706732
Ti       2.93645784       6.84802194      34.48339521      -0.00273307      -0.00289866      -0.01241429
Ti       5.87152019       6.84806026      34.48351345       0.00270904      -0.00285244      -0.01314760
