job_name,top_level,relpath,path,structure_file,num_atoms,formula,volume,density,energy_eV,energy_per_atom_eV,incar,incar_system,incar_encut,incar_ispin,incar_ismear,incar_sigma,incar_gga,potcar_nelectrons_map,potcar_total_nelectrons,parse_errors,solute
Segregation-1sol-T1m-Al-Al-36-d-1.42,Segregation-1sol,Segregation-1sol/T1m/Al/Al-36-d-1.42,/mnt/e/Onedrive/TiGB-Project/Data/Segregation-1sol/T1m/Al/Al-36-d-1.42,CONTCAR,64,Ti63 Al1,1108.7119705599027,4.556963865005457,-492.05328845,-7.68833263203125,"{""ALGO"": ""Fast"", ""AMIX"": 0.01, ""BMIX"": 0.0001, ""EDIFF"": 0.0001, ""EDIFFG"": -0.02, ""ENCUT"": 450.0, ""GGA"": ""Pe"", ""IBRION"": 2, ""ISIF"": 2, ""ISMEAR"": 1, ""ISPIN"": 1, ""ISTART"": 0, ""KPAR"": 4, ""LORBIT"": 10, ""LPLANE"": false, ""LREAL"": ""Auto"", ""NCORE"": 4, ""NELM"": 120, ""NSIM"": 1, ""NSW"": 60, ""PREC"": ""Accurate"", ""SIGMA"": 0.2, ""SYSTEM"": ""Al-36-d-1.42""}",Al-36-d-1.42,450.0,1,1,0.2,Pe,"{""Ti"": 4.0, ""Al"": 3.0}",255.0,,Al
Segregation-1sol-T1m-Al-Al-37-d-1.42,Segregation-1sol,Segregation-1sol/T1m/Al/Al-37-d-1.42,/mnt/e/Onedrive/TiGB-Project/Data/Segregation-1sol/T1m/Al/Al-37-d-1.42,CONTCAR,64,Ti63 Al1,1108.7119705599027,4.556963865005457,-492.05278475,-7.68832476171875,"{""ALGO"": ""Normal"", ""AMIX"": 0.01, ""BMIX"": 0.0001, ""EDIFF"": 0.0001, ""EDIFFG"": -0.02, ""ENCUT"": 450.0, ""GGA"": ""Pe"", ""IBRION"": 2, ""ISIF"": 2, ""ISMEAR"": 1, ""ISPIN"": 1, ""ISTART"": 0, ""KPAR"": 4, ""LORBIT"": 10, ""LPLANE"": false, ""LREAL"": ""Auto"", ""NCORE"": 4, ""NELM"": 120, ""NSIM"": 1, ""NSW"": 60, ""PREC"": ""Accurate"", ""SIGMA"": 0.2, ""SYSTEM"": ""Al-37-d-1.42""}",Al-37-d-1.42,450.0,1,1,0.2,Pe,"{""Ti"": 4.0, ""Al"": 3.0}",255.0,,Al
Segregation-1sol-T1m-Al-Al-38-d-2.03,Segregation-1sol,Segregation-1sol/T1m/Al/Al-38-d-2.03,/mnt/e/Onedrive/TiGB-Project/Data/Segregation-1sol/T1m/Al/Al-38-d-2.03,CONTCAR,64,Ti63 Al1,1108.7119705599027,4.556963865005457,-492.00290219,-7.68754534671875,"{""ALGO"": ""Fast"", ""AMIX"": 0.01, ""BMIX"": 0.0001, ""EDIFF"": 0.0001, ""EDIFFG"": -0.02, ""ENCUT"": 450.0, ""GGA"": ""Pe"", ""IBRION"": 2, ""ISIF"": 2, ""ISMEAR"": 1, ""ISPIN"": 1, ""ISTART"": 0, ""KPAR"": 4, ""LORBIT"": 10, ""LPLANE"": false, ""LREAL"": ""Auto"", ""NCORE"": 4, ""NELM"": 120, ""NSIM"": 1, ""NSW"": 60, ""PREC"": ""Accurate"", ""SIGMA"": 0.2, ""SYSTEM"": ""Al-38-d-2.03""}",Al-38-d-2.03,450.0,1,1,0.2,Pe,"{""Ti"": 4.0, ""Al"": 3.0}",255.0,,Al
Segregation-1sol-T1m-Al-Al-39-d-2.03,Segregation-1sol,Segregation-1sol/T1m/Al/Al-39-d-2.03,/mnt/e/Onedrive/TiGB-Project/Data/Segregation-1sol/T1m/Al/Al-39-d-2.03,CONTCAR,64,Ti63 Al1,1108.7119705599027,4.556963865005457,-492.00303224,-7.68754737875,"{""ALGO"": ""Normal"", ""AMIX"": 0.01, ""BMIX"": 0.0001, ""EDIFF"": 0.0001, ""EDIFFG"": -0.02, ""ENCUT"": 450.0, ""GGA"": ""Pe"", ""IBRION"": 2, ""ISIF"": 2, ""ISMEAR"": 1, ""ISPIN"": 1, ""ISTART"": 0, ""KPAR"": 4, ""LORBIT"": 10, ""LPLANE"": false, ""LREAL"": ""Auto"", ""NCORE"": 4, ""NELM"": 120, ""NSIM"": 1, ""NSW"": 60, ""PREC"": ""Accurate"", ""SIGMA"": 0.2, ""SYSTEM"": ""Al-39-d-2.03""}",Al-39-d-2.03,450.0,1,1,0.2,Pe,"{""Ti"": 4.0, ""Al"": 3.0}",255.0,,Al
Segregation-1sol-T1m-Al-Al-40-d-3.20,Segregation-1sol,Segregation-1sol/T1m/Al/Al-40-d-3.20,/mnt/e/Onedrive/TiGB-Project/Data/Segregation-1sol/T1m/Al/Al-40-d-3.20,CONTCAR,64,Ti63 Al1,1108.7119705599027,4.556963865005457,-492.05899074,-7.6884217303125,"{""ALGO"": ""Fast"", ""AMIX"": 0.01, ""BMIX"": 0.0001, ""EDIFF"": 0.0001, ""EDIFFG"": -0.02, ""ENCUT"": 450.0, ""GGA"": ""Pe"", ""IBRION"": 2, ""ISIF"": 2, ""ISMEAR"": 1, ""ISPIN"": 1, ""ISTART"": 0, ""KPAR"": 4, ""LORBIT"": 10, ""LPLANE"": false, ""LREAL"": ""Auto"", ""NCORE"": 4, ""NELM"": 120, ""NSIM"": 1, ""NSW"": 60, ""PREC"": ""Accurate"", ""SIGMA"": 0.2, ""SYSTEM"": ""Al-40-d-3.20""}",Al-40-d-3.20,450.0,1,1,0.2,Pe,"{""Ti"": 4.0, ""Al"": 3.0}",255.0,,Al
Segregation-1sol-T1m-Al-Al-41-d-3.20,Segregation-1sol,Segregation-1sol/T1m/Al/Al-41-d-3.20,/mnt/e/Onedrive/TiGB-Project/Data/Segregation-1sol/T1m/Al/Al-41-d-3.20,CONTCAR,64,Ti63 Al1,1108.7119705599027,4.556963865005457,-492.05966097,-7.68843220265625,"{""ALGO"": ""Normal"", ""AMIX"": 0.01, ""BMIX"": 0.0001, ""EDIFF"": 0.0001, ""EDIFFG"": -0.02, ""ENCUT"": 450.0, ""GGA"": ""Pe"", ""IBRION"": 2, ""ISIF"": 2, ""ISMEAR"": 1, ""ISPIN"": 1, ""ISTART"": 0, ""KPAR"": 4, ""LORBIT"": 10, ""LPLANE"": false, ""LREAL"": ""Auto"", ""NCORE"": 4, ""NELM"": 120, ""NSIM"": 1, ""NSW"": 60, ""PREC"": ""Accurate"", ""SIGMA"": 0.2, ""SYSTEM"": ""Al-41-d-3.20""}",Al-41-d-3.20,450.0,1,1,0.2,Pe,"{""Ti"": 4.0, ""Al"": 3.0}",255.0,,Al
Segregation-1sol-T1m-Al-Al-42-d-3.62,Segregation-1sol,Segregation-1sol/T1m/Al/Al-42-d-3.62,/mnt/e/Onedrive/TiGB-Project/Data/Segregation-1sol/T1m/Al/Al-42-d-3.62,CONTCAR,64,Ti63 Al1,1108.7119705599027,4.556963865005457,-491.96712561,-7.68698633765625,"{""ALGO"": ""Fast"", ""AMIX"": 0.01, ""BMIX"": 0.0001, ""EDIFF"": 0.0001, ""EDIFFG"": -0.02, ""ENCUT"": 450.0, ""GGA"": ""Pe"", ""IBRION"": 2, ""ISIF"": 2, ""ISMEAR"": 1, ""ISPIN"": 1, ""ISTART"": 0, ""KPAR"": 4, ""LORBIT"": 10, ""LPLANE"": false, ""LREAL"": ""Auto"", ""NCORE"": 4, ""NELM"": 120, ""NSIM"": 1, ""NSW"": 60, ""PREC"": ""Accurate"", ""SIGMA"": 0.2, ""SYSTEM"": ""Al-42-d-3.62""}",Al-42-d-3.62,450.0,1,1,0.2,Pe,"{""Ti"": 4.0, ""Al"": 3.0}",255.0,,Al
Segregation-1sol-T1m-Al-Al-43-d-3.62,Segregation-1sol,Segregation-1sol/T1m/Al/Al-43-d-3.62,/mnt/e/Onedrive/TiGB-Project/Data/Segregation-1sol/T1m/Al/Al-43-d-3.62,CONTCAR,64,Ti63 Al1,1108.7119705599027,4.556963865005457,-491.96704057,-7.68698500890625,"{""ALGO"": ""Normal"", ""AMIX"": 0.01, ""BMIX"": 0.0001, ""EDIFF"": 0.0001, ""EDIFFG"": -0.02, ""ENCUT"": 450.0, ""GGA"": ""Pe"", ""IBRION"": 2, ""ISIF"": 2, ""ISMEAR"": 1, ""ISPIN"": 1, ""ISTART"": 0, ""KPAR"": 4, ""LORBIT"": 10, ""LPLANE"": false, ""LREAL"": ""Auto"", ""NCORE"": 4, ""NELM"": 120, ""NSIM"": 1, ""NSW"": 60, ""PREC"": ""Accurate"", ""SIGMA"": 0.2, ""SYSTEM"": ""Al-43-d-3.62""}",Al-43-d-3.62,450.0,1,1,0.2,Pe,"{""Ti"": 4.0, ""Al"": 3.0}",255.0,,Al
Segregation-1sol-T1m-Al-Al-44-d-4.84,Segregation-1sol,Segregation-1sol/T1m/Al/Al-44-d-4.84,/mnt/e/Onedrive/TiGB-Project/Data/Segregation-1sol/T1m/Al/Al-44-d-4.84,CONTCAR,64,Ti63 Al1,1108.7119705599027,4.556963865005457,-492.02732842,-7.6879270065625,"{""ALGO"": ""Fast"", ""AMIX"": 0.01, ""BMIX"": 0.0001, ""EDIFF"": 0.0001, ""EDIFFG"": -0.02, ""ENCUT"": 450.0, ""GGA"": ""Pe"", ""IBRION"": 2, ""ISIF"": 2, ""ISMEAR"": 1, ""ISPIN"": 1, ""ISTART"": 0, ""KPAR"": 4, ""LORBIT"": 10, ""LPLANE"": false, ""LREAL"": ""Auto"", ""NCORE"": 4, ""NELM"": 120, ""NSIM"": 1, ""NSW"": 60, ""PREC"": ""Accurate"", ""SIGMA"": 0.2, ""SYSTEM"": ""Al-44-d-4.84""}",Al-44-d-4.84,450.0,1,1,0.2,Pe,"{""Ti"": 4.0, ""Al"": 3.0}",255.0,,Al
Segregation-1sol-T1m-Al-Al-45-d-4.84,Segregation-1sol,Segregation-1sol/T1m/Al/Al-45-d-4.84,/mnt/e/Onedrive/TiGB-Project/Data/Segregation-1sol/T1m/Al/Al-45-d-4.84,CONTCAR,64,Ti63 Al1,1108.7119705599027,4.556963865005457,-492.02662491,-7.68791601421875,"{""ALGO"": ""Fast"", ""AMIX"": 0.01, ""BMIX"": 0.0001, ""EDIFF"": 0.0001, ""EDIFFG"": -0.02, ""ENCUT"": 450.0, ""GGA"": ""Pe"", ""IBRION"": 2, ""ISIF"": 2, ""ISMEAR"": 1, ""ISPIN"": 1, ""ISTART"": 0, ""KPAR"": 4, ""LORBIT"": 10, ""LPLANE"": false, ""LREAL"": ""Auto"", ""NCORE"": 4, ""NELM"": 120, ""NSIM"": 1, ""NSW"": 60, ""PREC"": ""Accurate"", ""SIGMA"": 0.2, ""SYSTEM"": ""Al-45-d-4.84""}",Al-45-d-4.84,450.0,1,1,0.2,Pe,"{""Ti"": 4.0, ""Al"": 3.0}",255.0,,Al
Segregation-1sol-T1m-Al-Al-46-d-5.43,Segregation-1sol,Segregation-1sol/T1m/Al/Al-46-d-5.43,/mnt/e/Onedrive/TiGB-Project/Data/Segregation-1sol/T1m/Al/Al-46-d-5.43,CONTCAR,64,Ti63 Al1,1108.7119705599027,4.556963865005457,-491.9997219,-7.6874956546875,"{""ALGO"": ""Fast"", ""AMIX"": 0.01, ""BMIX"": 0.0001, ""EDIFF"": 0.0001, ""EDIFFG"": -0.02, ""ENCUT"": 450.0, ""GGA"": ""Pe"", ""IBRION"": 2, ""ISIF"": 2, ""ISMEAR"": 1, ""ISPIN"": 1, ""ISTART"": 0, ""KPAR"": 4, ""LORBIT"": 10, ""LPLANE"": false, ""LREAL"": ""Auto"", ""NCORE"": 4, ""NELM"": 120, ""NSIM"": 1, ""NSW"": 60, ""PREC"": ""Accurate"", ""SIGMA"": 0.2, ""SYSTEM"": ""Al-46-d-5.43""}",Al-46-d-5.43,450.0,1,1,0.2,Pe,"{""Ti"": 4.0, ""Al"": 3.0}",255.0,,Al
Segregation-1sol-T1m-Al-Al-47-d-5.43,Segregation-1sol,Segregation-1sol/T1m/Al/Al-47-d-5.43,/mnt/e/Onedrive/TiGB-Project/Data/Segregation-1sol/T1m/Al/Al-47-d-5.43,CONTCAR,64,Ti63 Al1,1108.7119705599027,4.556963865005457,-491.99862191,-7.68747846734375,"{""ALGO"": ""Normal"", ""AMIX"": 0.01, ""BMIX"": 0.0001, ""EDIFF"": 0.0001, ""EDIFFG"": -0.02, ""ENCUT"": 450.0, ""GGA"": ""Pe"", ""IBRION"": 2, ""ISIF"": 2, ""ISMEAR"": 1, ""ISPIN"": 1, ""ISTART"": 0, ""KPAR"": 4, ""LORBIT"": 10, ""LPLANE"": false, ""LREAL"": ""Auto"", ""NCORE"": 4, ""NELM"": 120, ""NSIM"": 1, ""NSW"": 60, ""PREC"": ""Accurate"", ""SIGMA"": 0.2, ""SYSTEM"": ""Al-47-d-5.43""}",Al-47-d-5.43,450.0,1,1,0.2,Pe,"{""Ti"": 4.0, ""Al"": 3.0}",255.0,,Al
Segregation-1sol-T1m-Al-Al-48-d-6.60,Segregation-1sol,Segregation-1sol/T1m/Al/Al-48-d-6.60,/mnt/e/Onedrive/TiGB-Project/Data/Segregation-1sol/T1m/Al/Al-48-d-6.60,CONTCAR,64,Ti63 Al1,1108.7119705599027,4.556963865005457,-492.01065742,-7.6876665221875,"{""ALGO"": ""Fast"", ""AMIX"": 0.01, ""BMIX"": 0.0001, ""EDIFF"": 0.0001, ""EDIFFG"": -0.02, ""ENCUT"": 450.0, ""GGA"": ""Pe"", ""IBRION"": 2, ""ISIF"": 2, ""ISMEAR"": 1, ""ISPIN"": 1, ""ISTART"": 0, ""KPAR"": 4, ""LORBIT"": 10, ""LPLANE"": false, ""LREAL"": ""Auto"", ""NCORE"": 4, ""NELM"": 120, ""NSIM"": 1, ""NSW"": 60, ""PREC"": ""Accurate"", ""SIGMA"": 0.2, ""SYSTEM"": ""Al-48-d-6.60""}",Al-48-d-6.60,450.0,1,1,0.2,Pe,"{""Ti"": 4.0, ""Al"": 3.0}",255.0,,Al
Segregation-1sol-T1m-Al-Al-49-d-6.60,Segregation-1sol,Segregation-1sol/T1m/Al/Al-49-d-6.60,/mnt/e/Onedrive/TiGB-Project/Data/Segregation-1sol/T1m/Al/Al-49-d-6.60,CONTCAR,64,Ti63 Al1,1108.7119705599027,4.556963865005457,-492.01090214,-7.6876703459375,"{""ALGO"": ""Normal"", ""AMIX"": 0.01, ""BMIX"": 0.0001, ""EDIFF"": 0.0001, ""EDIFFG"": -0.02, ""ENCUT"": 450.0, ""GGA"": ""Pe"", ""IBRION"": 2, ""ISIF"": 2, ""ISMEAR"": 1, ""ISPIN"": 1, ""ISTART"": 0, ""KPAR"": 4, ""LORBIT"": 10, ""LPLANE"": false, ""LREAL"": ""Auto"", ""NCORE"": 4, ""NELM"": 120, ""NSIM"": 1, ""NSW"": 60, ""PREC"": ""Accurate"", ""SIGMA"": 0.2, ""SYSTEM"": ""Al-49-d-6.60""}",Al-49-d-6.60,450.0,1,1,0.2,Pe,"{""Ti"": 4.0, ""Al"": 3.0}",255.0,,Al
Segregation-1sol-T1m-V-V-32-d-0.00,Segregation-1sol,Segregation-1sol/T1m/V/V-32-d-0.00,/mnt/e/Onedrive/TiGB-Project/Data/Segregation-1sol/T1m/V/V-32-d-0.00,CONTCAR,64,Ti63 V1,1108.7119705599027,4.592849156272243,-496.08248612,-7.751288845625,"{""ALGO"": ""Fast"", ""AMIX"": 0.01, ""BMIX"": 0.0001, ""EDIFF"": 0.0001, ""EDIFFG"": -0.02, ""ENCUT"": 450.0, ""GGA"": ""Pe"", ""IBRION"": 2, ""ISIF"": 2, ""ISMEAR"": 1, ""ISPIN"": 1, ""ISTART"": 0, ""KPAR"": 4, ""LORBIT"": 10, ""LPLANE"": false, ""LREAL"": ""Auto"", ""NCORE"": 4, ""NELM"": 120, ""NSIM"": 1, ""NSW"": 60, ""PREC"": ""Accurate"", ""SIGMA"": 0.2, ""SYSTEM"": ""V-32-d-0.00""}",V-32-d-0.00,450.0,1,1,0.2,Pe,"{""Ti"": 4.0, ""V"": 5.0}",257.0,,V
Segregation-1sol-T1m-V-V-33-d-0.00,Segregation-1sol,Segregation-1sol/T1m/V/V-33-d-0.00,/mnt/e/Onedrive/TiGB-Project/Data/Segregation-1sol/T1m/V/V-33-d-0.00,CONTCAR,64,Ti63 V1,1108.7119705599027,4.592849156272243,-496.08348405,-7.75130443828125,"{""ALGO"": ""Fast"", ""AMIX"": 0.01, ""BMIX"": 0.0001, ""EDIFF"": 0.0001, ""EDIFFG"": -0.02, ""ENCUT"": 450.0, ""GGA"": ""Pe"", ""IBRION"": 2, ""ISIF"": 2, ""ISMEAR"": 1, ""ISPIN"": 1, ""ISTART"": 0, ""KPAR"": 4, ""LORBIT"": 10, ""LPLANE"": false, ""LREAL"": ""Auto"", ""NCORE"": 4, ""NELM"": 120, ""NSIM"": 1, ""NSW"": 60, ""PREC"": ""Accurate"", ""SIGMA"": 0.2, ""SYSTEM"": ""V-33-d-0.00""}",V-33-d-0.00,450.0,1,1,0.2,Pe,"{""Ti"": 4.0, ""V"": 5.0}",257.0,,V
Segregation-1sol-T1m-V-V-34-d-0.00,Segregation-1sol,Segregation-1sol/T1m/V/V-34-d-0.00,/mnt/e/Onedrive/TiGB-Project/Data/Segregation-1sol/T1m/V/V-34-d-0.00,CONTCAR,64,Ti63 V1,1108.7119705599027,4.592849156272243,-495.69096353,-7.74517130515625,"{""ALGO"": ""Normal"", ""AMIX"": 0.01, ""BMIX"": 0.0001, ""EDIFF"": 0.0001, ""EDIFFG"": -0.02, ""ENCUT"": 450.0, ""GGA"": ""Pe"", ""IBRION"": 2, ""ISIF"": 2, ""ISMEAR"": 1, ""ISPIN"": 1, ""ISTART"": 0, ""KPAR"": 4, ""LORBIT"": 10, ""LPLANE"": false, ""LREAL"": ""Auto"", ""NCORE"": 4, ""NELM"": 120, ""NSIM"": 1, ""NSW"": 60, ""PREC"": ""Accurate"", ""SIGMA"": 0.2, ""SYSTEM"": ""V-34-d-0.00""}",V-34-d-0.00,450.0,1,1,0.2,Pe,"{""Ti"": 4.0, ""V"": 5.0}",257.0,,V
Segregation-1sol-T1m-V-V-35-d-0.00,Segregation-1sol,Segregation-1sol/T1m/V/V-35-d-0.00,/mnt/e/Onedrive/TiGB-Project/Data/Segregation-1sol/T1m/V/V-35-d-0.00,CONTCAR,64,Ti63 V1,1108.7119705599027,4.592849156272243,-495.69177343,-7.74518395984375,"{""ALGO"": ""Fast"", ""AMIX"": 0.01, ""BMIX"": 0.0001, ""EDIFF"": 0.0001, ""EDIFFG"": -0.02, ""ENCUT"": 450.0, ""GGA"": ""Pe"", ""IBRION"": 2, ""ISIF"": 2, ""ISMEAR"": 1, ""ISPIN"": 1, ""ISTART"": 0, ""KPAR"": 4, ""LORBIT"": 10, ""LPLANE"": false, ""LREAL"": ""Auto"", ""NCORE"": 4, ""NELM"": 120, ""NSIM"": 1, ""NSW"": 60, ""PREC"": ""Accurate"", ""SIGMA"": 0.2, ""SYSTEM"": ""V-35-d-0.00""}",V-35-d-0.00,450.0,1,1,0.2,Pe,"{""Ti"": 4.0, ""V"": 5.0}",257.0,,V
Segregation-1sol-T1m-V-V-36-d-1.42,Segregation-1sol,Segregation-1sol/T1m/V/V-36-d-1.42,/mnt/e/Onedrive/TiGB-Project/Data/Segregation-1sol/T1m/V/V-36-d-1.42,CONTCAR,64,Ti63 V1,1108.7119705599027,4.592849156272243,-495.93695137,-7.74901486515625,"{""ALGO"": ""Fast"", ""AMIX"": 0.01, ""BMIX"": 0.0001, ""EDIFF"": 0.0001, ""EDIFFG"": -0.02, ""ENCUT"": 450.0, ""GGA"": ""Pe"", ""IBRION"": 2, ""ISIF"": 2, ""ISMEAR"": 1, ""ISPIN"": 1, ""ISTART"": 0, ""KPAR"": 4, ""LORBIT"": 10, ""LPLANE"": false, ""LREAL"": ""Auto"", ""NCORE"": 4, ""NELM"": 120, ""NSIM"": 1, ""NSW"": 60, ""PREC"": ""Accurate"", ""SIGMA"": 0.2, ""SYSTEM"": ""V-36-d-1.42""}",V-36-d-1.42,450.0,1,1,0.2,Pe,"{""Ti"": 4.0, ""V"": 5.0}",257.0,,V
Segregation-1sol-T1m-V-V-37-d-1.42,Segregation-1sol,Segregation-1sol/T1m/V/V-37-d-1.42,/mnt/e/Onedrive/TiGB-Project/Data/Segregation-1sol/T1m/V/V-37-d-1.42,CONTCAR,64,Ti63 V1,1108.7119705599027,4.592849156272243,-495.9368253,-7.7490128953125,"{""ALGO"": ""Normal"", ""AMIX"": 0.01, ""BMIX"": 0.0001, ""EDIFF"": 0.0001, ""EDIFFG"": -0.02, ""ENCUT"": 450.0, ""GGA"": ""Pe"", ""IBRION"": 2, ""ISIF"": 2, ""ISMEAR"": 1, ""ISPIN"": 1, ""ISTART"": 0, ""KPAR"": 4, ""LORBIT"": 10, ""LPLANE"": false, ""LREAL"": ""Auto"", ""NCORE"": 4, ""NELM"": 120, ""NSIM"": 1, ""NSW"": 60, ""PREC"": ""Accurate"", ""SIGMA"": 0.2, ""SYSTEM"": ""V-37-d-1.42""}",V-37-d-1.42,450.0,1,1,0.2,Pe,"{""Ti"": 4.0, ""V"": 5.0}",257.0,,V
Segregation-1sol-T1m-V-V-38-d-2.03,Segregation-1sol,Segregation-1sol/T1m/V/V-38-d-2.03,/mnt/e/Onedrive/TiGB-Project/Data/Segregation-1sol/T1m/V/V-38-d-2.03,CONTCAR,64,Ti63 V1,1108.7119705599027,4.592849156272243,-495.93006591,-7.74890727984375,"{""ALGO"": ""Fast"", ""AMIX"": 0.01, ""BMIX"": 0.0001, ""EDIFF"": 0.0001, ""EDIFFG"": -0.02, ""ENCUT"": 450.0, ""GGA"": ""Pe"", ""IBRION"": 2, ""ISIF"": 2, ""ISMEAR"": 1, ""ISPIN"": 1, ""ISTART"": 0, ""KPAR"": 4, ""LORBIT"": 10, ""LPLANE"": false, ""LREAL"": ""Auto"", ""NCORE"": 4, ""NELM"": 120, ""NSIM"": 1, ""NSW"": 60, ""PREC"": ""Accurate"", ""SIGMA"": 0.2, ""SYSTEM"": ""V-38-d-2.03""}",V-38-d-2.03,450.0,1,1,0.2,Pe,"{""Ti"": 4.0, ""V"": 5.0}",257.0,,V
Segregation-1sol-T1m-V-V-39-d-2.03,Segregation-1sol,Segregation-1sol/T1m/V/V-39-d-2.03,/mnt/e/Onedrive/TiGB-Project/Data/Segregation-1sol/T1m/V/V-39-d-2.03,CONTCAR,64,Ti63 V1,1108.7119705599027,4.592849156272243,-495.9294542,-7.748897721875,"{""ALGO"": ""Normal"", ""AMIX"": 0.01, ""BMIX"": 0.0001, ""EDIFF"": 0.0001, ""EDIFFG"": -0.02, ""ENCUT"": 450.0, ""GGA"": ""Pe"", ""IBRION"": 2, ""ISIF"": 2, ""ISMEAR"": 1, ""ISPIN"": 1, ""ISTART"": 0, ""KPAR"": 4, ""LORBIT"": 10, ""LPLANE"": false, ""LREAL"": ""Auto"", ""NCORE"": 4, ""NELM"": 120, ""NSIM"": 1, ""NSW"": 60, ""PREC"": ""Accurate"", ""SIGMA"": 0.2, ""SYSTEM"": ""V-39-d-2.03""}",V-39-d-2.03,450.0,1,1,0.2,Pe,"{""Ti"": 4.0, ""V"": 5.0}",257.0,,V
Segregation-1sol-T1m-V-V-40-d-3.20,Segregation-1sol,Segregation-1sol/T1m/V/V-40-d-3.20,/mnt/e/Onedrive/TiGB-Project/Data/Segregation-1sol/T1m/V/V-40-d-3.20,CONTCAR,64,Ti63 V1,1108.7119705599027,4.592849156272243,-496.08135936,-7.75127124,"{""ALGO"": ""Fast"", ""AMIX"": 0.01, ""BMIX"": 0.0001, ""EDIFF"": 0.0001, ""EDIFFG"": -0.02, ""ENCUT"": 450.0, ""GGA"": ""Pe"", ""IBRION"": 2, ""ISIF"": 2, ""ISMEAR"": 1, ""ISPIN"": 1, ""ISTART"": 0, ""KPAR"": 4, ""LORBIT"": 10, ""LPLANE"": false, ""LREAL"": ""Auto"", ""NCORE"": 4, ""NELM"": 120, ""NSIM"": 1, ""NSW"": 60, ""PREC"": ""Accurate"", ""SIGMA"": 0.2, ""SYSTEM"": ""V-40-d-3.20""}",V-40-d-3.20,450.0,1,1,0.2,Pe,"{""Ti"": 4.0, ""V"": 5.0}",257.0,,V
Segregation-1sol-T1m-V-V-41-d-3.20,Segregation-1sol,Segregation-1sol/T1m/V/V-41-d-3.20,/mnt/e/Onedrive/TiGB-Project/Data/Segregation-1sol/T1m/V/V-41-d-3.20,CONTCAR,64,Ti63 V1,1108.7119705599027,4.592849156272243,-496.0805447,-7.7512585109375,"{""ALGO"": ""Fast"", ""AMIX"": 0.01, ""BMIX"": 0.0001, ""EDIFF"": 0.0001, ""EDIFFG"": -0.02, ""ENCUT"": 450.0, ""GGA"": ""Pe"", ""IBRION"": 2, ""ISIF"": 2, ""ISMEAR"": 1, ""ISPIN"": 1, ""ISTART"": 0, ""KPAR"": 4, ""LORBIT"": 10, ""LPLANE"": false, ""LREAL"": ""Auto"", ""NCORE"": 4, ""NELM"": 120, ""NSIM"": 1, ""NSW"": 60, ""PREC"": ""Accurate"", ""SIGMA"": 0.2, ""SYSTEM"": ""V-41-d-3.20""}",V-41-d-3.20,450.0,1,1,0.2,Pe,"{""Ti"": 4.0, ""V"": 5.0}",257.0,,V
Segregation-1sol-T1m-V-V-42-d-3.62,Segregation-1sol,Segregation-1sol/T1m/V/V-42-d-3.62,/mnt/e/Onedrive/TiGB-Project/Data/Segregation-1sol/T1m/V/V-42-d-3.62,CONTCAR,64,Ti63 V1,1108.7119705599027,4.592849156272243,-495.73693914,-7.7458896740625,"{""ALGO"": ""Fast"", ""AMIX"": 0.01, ""BMIX"": 0.0001, ""EDIFF"": 0.0001, ""EDIFFG"": -0.02, ""ENCUT"": 450.0, ""GGA"": ""Pe"", ""IBRION"": 2, ""ISIF"": 2, ""ISMEAR"": 1, ""ISPIN"": 1, ""ISTART"": 0, ""KPAR"": 4, ""LORBIT"": 10, ""LPLANE"": false, ""LREAL"": ""Auto"", ""NCORE"": 4, ""NELM"": 120, ""NSIM"": 1, ""NSW"": 60, ""PREC"": ""Accurate"", ""SIGMA"": 0.2, ""SYSTEM"": ""V-42-d-3.62""}",V-42-d-3.62,450.0,1,1,0.2,Pe,"{""Ti"": 4.0, ""V"": 5.0}",257.0,,V
Segregation-1sol-T1m-V-V-43-d-3.62,Segregation-1sol,Segregation-1sol/T1m/V/V-43-d-3.62,/mnt/e/Onedrive/TiGB-Project/Data/Segregation-1sol/T1m/V/V-43-d-3.62,CONTCAR,64,Ti63 V1,1108.7119705599027,4.592849156272243,-495.73770543,-7.74590164734375,"{""ALGO"": ""Normal"", ""AMIX"": 0.01, ""BMIX"": 0.0001, ""EDIFF"": 0.0001, ""EDIFFG"": -0.02, ""ENCUT"": 450.0, ""GGA"": ""Pe"", ""IBRION"": 2, ""ISIF"": 2, ""ISMEAR"": 1, ""ISPIN"": 1, ""ISTART"": 0, ""KPAR"": 4, ""LORBIT"": 10, ""LPLANE"": false, ""LREAL"": ""Auto"", ""NCORE"": 4, ""NELM"": 120, ""NSIM"": 1, ""NSW"": 60, ""PREC"": ""Accurate"", ""SIGMA"": 0.2, ""SYSTEM"": ""V-43-d-3.62""}",V-43-d-3.62,450.0,1,1,0.2,Pe,"{""Ti"": 4.0, ""V"": 5.0}",257.0,,V
Segregation-1sol-T1m-V-V-44-d-4.84,Segregation-1sol,Segregation-1sol/T1m/V/V-44-d-4.84,/mnt/e/Onedrive/TiGB-Project/Data/Segregation-1sol/T1m/V/V-44-d-4.84,CONTCAR,64,Ti63 V1,1108.7119705599027,4.592849156272243,-495.77438886,-7.7464748259375,"{""ALGO"": ""Fast"", ""AMIX"": 0.01, ""BMIX"": 0.0001, ""EDIFF"": 0.0001, ""EDIFFG"": -0.02, ""ENCUT"": 450.0, ""GGA"": ""Pe"", ""IBRION"": 2, ""ISIF"": 2, ""ISMEAR"": 1, ""ISPIN"": 1, ""ISTART"": 0, ""KPAR"": 4, ""LORBIT"": 10, ""LPLANE"": false, ""LREAL"": ""Auto"", ""NCORE"": 4, ""NELM"": 120, ""NSIM"": 1, ""NSW"": 60, ""PREC"": ""Accurate"", ""SIGMA"": 0.2, ""SYSTEM"": ""V-44-d-4.84""}",V-44-d-4.84,450.0,1,1,0.2,Pe,"{""Ti"": 4.0, ""V"": 5.0}",257.0,,V