job_name,top_level,relpath,path,structure_file,num_atoms,formula,volume,density,energy_eV,energy_per_atom_eV,incar,incar_system,incar_encut,incar_ispin,incar_ismear,incar_sigma,incar_gga,potcar_nelectrons_map,potcar_total_nelectrons,parse_errors,solute
Segregation-1sol-addvac-T2-V-V-40-d-2.77,Segregation-1sol-addvac,Segregation-1sol-addvac/T2/V/V-40-d-2.77,/mnt/e/Onedrive/TiGB-Project/Data/Segregation-1sol-addvac/T2/V/V-40-d-2.77,CONTCAR,64,Ti63 V1,1898.3108162424583,2.6824621105064597,-484.6324608,-7.5723822,"{""ALGO"": ""Fast"", ""AMIX"": 0.01, ""BMIX"": 0.0001, ""EDIFF"": 0.0001, ""EDIFFG"": -0.02, ""ENCUT"": 450.0, ""GGA"": ""Pe"", ""IBRION"": 2, ""ISIF"": 2, ""ISMEAR"": 1, ""ISPIN"": 1, ""ISTART"": 0, ""KPAR"": 4, ""LORBIT"": 10, ""LPLANE"": false, ""LREAL"": ""Auto"", ""NCORE"": 4, ""NELM"": 120, ""NSIM"": 1, ""NSW"": 60, ""PREC"": ""Accurate"", ""SIGMA"": 0.2, ""SYSTEM"": ""V-40-d-2.77""}",V-40-d-2.77,450.0,1,1,0.2,Pe,"{""Ti"": 4.0, ""V"": 5.0}",257.0,,V
Segregation-1sol-addvac-T2-V-V-42-d-3.50,Segregation-1sol-addvac,Segregation-1sol-addvac/T2/V/V-42-d-3.50,/mnt/e/Onedrive/TiGB-Project/Data/Segregation-1sol-addvac/T2/V/V-42-d-3.50,CONTCAR,64,Ti63 V1,1898.3108162424583,2.6824621105064597,-484.60454808,-7.57194606375,"{""ALGO"": ""Fast"", ""AMIX"": 0.01, ""BMIX"": 0.0001, ""EDIFF"": 0.0001, ""EDIFFG"": -0.02, ""ENCUT"": 450.0, ""GGA"": ""Pe"", ""IBRION"": 2, ""ISIF"": 2, ""ISMEAR"": 1, ""ISPIN"": 1, ""ISTART"": 0, ""KPAR"": 4, ""LORBIT"": 10, ""LPLANE"": false, ""LREAL"": ""Auto"", ""NCORE"": 4, ""NELM"": 120, ""NSIM"": 1, ""NSW"": 60, ""PREC"": ""Accurate"", ""SIGMA"": 0.2, ""SYSTEM"": ""V-42-d-3.50""}",V-42-d-3.50,450.0,1,1,0.2,Pe,"{""Ti"": 4.0, ""V"": 5.0}",257.0,,V
Segregation-1sol-addvac-T2-V-V-44-d-4.19,Segregation-1sol-addvac,Segregation-1sol-addvac/T2/V/V-44-d-4.19,/mnt/e/Onedrive/TiGB-Project/Data/Segregation-1sol-addvac/T2/V/V-44-d-4.19,CONTCAR,64,Ti63 V1,1898.3108162424583,2.6824621105064597,-484.6641381,-7.5728771578125,"{""ALGO"": ""Fast"", ""AMIX"": 0.01, ""BMIX"": 0.0001, ""EDIFF"": 0.0001, ""EDIFFG"": -0.02, ""ENCUT"": 450.0, ""GGA"": ""Pe"", ""IBRION"": 2, ""ISIF"": 2, ""ISMEAR"": 1, ""ISPIN"": 1, ""ISTART"": 0, ""KPAR"": 4, ""LORBIT"": 10, ""LPLANE"": false, ""LREAL"": ""Auto"", ""NCORE"": 4, ""NELM"": 120, ""NSIM"": 1, ""NSW"": 60, ""PREC"": ""Accurate"", ""SIGMA"": 0.2, ""SYSTEM"": ""V-44-d-4.19""}",V-44-d-4.19,450.0,1,1,0.2,Pe,"{""Ti"": 4.0, ""V"": 5.0}",257.0,,V
Segregation-1sol-addvac-T2-V-V-46-d-4.86,Segregation-1sol-addvac,Segregation-1sol-addvac/T2/V/V-46-d-4.86,/mnt/e/Onedrive/TiGB-Project/Data/Segregation-1sol-addvac/T2/V/V-46-d-4.86,CONTCAR,64,Ti63 V1,1898.3108162424583,2.6824621105064597,-484.52956917,-7.57077451828125,"{""ALGO"": ""Fast"", ""AMIX"": 0.01, ""BMIX"": 0.0001, ""EDIFF"": 0.0001, ""EDIFFG"": -0.02, ""ENCUT"": 450.0, ""GGA"": ""Pe"", ""IBRION"": 2, ""ISIF"": 2, ""ISMEAR"": 1, ""ISPIN"": 1, ""ISTART"": 0, ""KPAR"": 4, ""LORBIT"": 10, ""LPLANE"": false, ""LREAL"": ""Auto"", ""NCORE"": 4, ""NELM"": 120, ""NSIM"": 1, ""NSW"": 60, ""PREC"": ""Accurate"", ""SIGMA"": 0.2, ""SYSTEM"": ""V-46-d-4.86""}",V-46-d-4.86,450.0,1,1,0.2,Pe,"{""Ti"": 4.0, ""V"": 5.0}",257.0,,V
Segregation-1sol-addvac-T2-V-V-48-d-5.58,Segregation-1sol-addvac,Segregation-1sol-addvac/T2/V/V-48-d-5.58,/mnt/e/Onedrive/TiGB-Project/Data/Segregation-1sol-addvac/T2/V/V-48-d-5.58,CONTCAR,64,Ti63 V1,1898.3108162424583,2.6824621105064597,-484.43050252,-7.569226601875,"{""ALGO"": ""Fast"", ""AMIX"": 0.01, ""BMIX"": 0.0001, ""EDIFF"": 0.0001, ""EDIFFG"": -0.02, ""ENCUT"": 450.0, ""GGA"": ""Pe"", ""IBRION"": 2, ""ISIF"": 2, ""ISMEAR"": 1, ""ISPIN"": 1, ""ISTART"": 0, ""KPAR"": 4, ""LORBIT"": 10, ""LPLANE"": false, ""LREAL"": ""Auto"", ""NCORE"": 4, ""NELM"": 120, ""NSIM"": 1, ""NSW"": 60, ""PREC"": ""Accurate"", ""SIGMA"": 0.2, ""SYSTEM"": ""V-48-d-5.58""}",V-48-d-5.58,450.0,1,1,0.2,Pe,"{""Ti"": 4.0, ""V"": 5.0}",257.0,,V
Segregation-1sol-addvac-T2-V-V-50-d-6.29,Segregation-1sol-addvac,Segregation-1sol-addvac/T2/V/V-50-d-6.29,/mnt/e/Onedrive/TiGB-Project/Data/Segregation-1sol-addvac/T2/V/V-50-d-6.29,CONTCAR,64,Ti63 V1,1898.3108162424583,2.6824621105064597,-484.56264842,-7.5712913815625,"{""ALGO"": ""Fast"", ""AMIX"": 0.01, ""BMIX"": 0.0001, ""EDIFF"": 0.0001, ""EDIFFG"": -0.02, ""ENCUT"": 450.0, ""GGA"": ""Pe"", ""IBRION"": 2, ""ISIF"": 2, ""ISMEAR"": 1, ""ISPIN"": 1, ""ISTART"": 0, ""KPAR"": 4, ""LORBIT"": 10, ""LPLANE"": false, ""LREAL"": ""Auto"", ""NCORE"": 4, ""NELM"": 120, ""NSIM"": 1, ""NSW"": 60, ""PREC"": ""Accurate"", ""SIGMA"": 0.2, ""SYSTEM"": ""V-50-d-6.29""}",V-50-d-6.29,450.0,1,1,0.2,Pe,"{""Ti"": 4.0, ""V"": 5.0}",257.0,,V
Segregation-1sol-addvac-T2-V-V-52-d-6.97,Segregation-1sol-addvac,Segregation-1sol-addvac/T2/V/V-52-d-6.97,/mnt/e/Onedrive/TiGB-Project/Data/Segregation-1sol-addvac/T2/V/V-52-d-6.97,CONTCAR,64,Ti63 V1,1898.3108162424583,2.6824621105064597,-484.53293082,-7.5708270440625,"{""ALGO"": ""Fast"", ""AMIX"": 0.01, ""BMIX"": 0.0001, ""EDIFF"": 0.0001, ""EDIFFG"": -0.02, ""ENCUT"": 450.0, ""GGA"": ""Pe"", ""IBRION"": 2, ""ISIF"": 2, ""ISMEAR"": 1, ""ISPIN"": 1, ""ISTART"": 0, ""KPAR"": 4, ""LORBIT"": 10, ""LPLANE"": false, ""LREAL"": ""Auto"", ""NCORE"": 4, ""NELM"": 120, ""NSIM"": 1, ""NSW"": 60, ""PREC"": ""Accurate"", ""SIGMA"": 0.2, ""SYSTEM"": ""V-52-d-6.97""}",V-52-d-6.97,450.0,1,1,0.2,Pe,"{""Ti"": 4.0, ""V"": 5.0}",257.0,,V
SegregationProfile-C1-Al-Al-25-d-0.00,SegregationProfile,SegregationProfile/C1/Al/Al-25-d-0.00,/mnt/e/Onedrive/TiGB-Project/Data/SegregationProfile/C1/Al/Al-25-d-0.00,CONTCAR,52,Ti51 Al1,915.1478097085853,4.478555332500511,-398.91855356,-7.671510645384616,"{""ALGO"": ""Fast"", ""AMIX"": 0.01, ""BMIX"": 0.0001, ""EDIFF"": 0.0001, ""EDIFFG"": -0.02, ""ENCUT"": 450.0, ""GGA"": ""Pe"", ""IBRION"": 2, ""ISIF"": 2, ""ISMEAR"": 1, ""ISPIN"": 1, ""ISTART"": 0, ""KPAR"": 4, ""LORBIT"": 10, ""LPLANE"": false, ""LREAL"": ""Auto"", ""NCORE"": 4, ""NELM"": 120, ""NSIM"": 1, ""NSW"": 60, ""PREC"": ""Accurate"", ""SIGMA"": 0.2, ""SYSTEM"": ""Al-25-d-0.00""}",Al-25-d-0.00,450.0,1,1,0.2,Pe,"{""Ti"": 4.0, ""Al"": 3.0}",207.0,,Al
SegregationProfile-C1-Al-Al-26-d-0.00,SegregationProfile,SegregationProfile/C1/Al/Al-26-d-0.00,/mnt/e/Onedrive/TiGB-Project/Data/SegregationProfile/C1/Al/Al-26-d-0.00,CONTCAR,52,Ti51 Al1,915.1478097085853,4.478555332500511,-398.91823578,-7.671504534230769,"{""ALGO"": ""Fast"", ""AMIX"": 0.01, ""BMIX"": 0.0001, ""EDIFF"": 0.0001, ""EDIFFG"": -0.02, ""ENCUT"": 450.0, ""GGA"": ""Pe"", ""IBRION"": 2, ""ISIF"": 2, ""ISMEAR"": 1, ""ISPIN"": 1, ""ISTART"": 0, ""KPAR"": 4, ""LORBIT"": 10, ""LPLANE"": false, ""LREAL"": ""Auto"", ""NCORE"": 4, ""NELM"": 120, ""NSIM"": 1, ""NSW"": 60, ""PREC"": ""Accurate"", ""SIGMA"": 0.2, ""SYSTEM"": ""Al-26-d-0.00""}",Al-26-d-0.00,450.0,1,1,0.2,Pe,"{""Ti"": 4.0, ""Al"": 3.0}",207.0,,Al
SegregationProfile-C1-Al-Al-27-d-1.38,SegregationProfile,SegregationProfile/C1/Al/Al-27-d-1.38,/mnt/e/Onedrive/TiGB-Project/Data/SegregationProfile/C1/Al/Al-27-d-1.38,CONTCAR,52,Ti51 Al1,915.1478097085853,4.478555332500511,-399.05653242,-7.674164085,"{""ALGO"": ""Normal"", ""AMIX"": 0.01, ""BMIX"": 0.0001, ""EDIFF"": 0.0001, ""EDIFFG"": -0.02, ""ENCUT"": 450.0, ""GGA"": ""Pe"", ""IBRION"": 2, ""ISIF"": 2, ""ISMEAR"": 1, ""ISPIN"": 1, ""ISTART"": 0, ""KPAR"": 4, ""LORBIT"": 10, ""LPLANE"": false, ""LREAL"": ""Auto"", ""NCORE"": 4, ""NELM"": 120, ""NSIM"": 1, ""NSW"": 60, ""PREC"": ""Accurate"", ""SIGMA"": 0.2, ""SYSTEM"": ""Al-27-d-1.38""}",Al-27-d-1.38,450.0,1,1,0.2,Pe,"{""Ti"": 4.0, ""Al"": 3.0}",207.0,,Al
SegregationProfile-C1-Al-Al-28-d-1.38,SegregationProfile,SegregationProfile/C1/Al/Al-28-d-1.38,/mnt/e/Onedrive/TiGB-Project/Data/SegregationProfile/C1/Al/Al-28-d-1.38,CONTCAR,52,Ti51 Al1,915.1478097085853,4.478555332500511,-399.01479835,-7.673361506730769,"{""ALGO"": ""Fast"", ""AMIX"": 0.01, ""BMIX"": 0.0001, ""EDIFF"": 0.0001, ""EDIFFG"": -0.02, ""ENCUT"": 450.0, ""GGA"": ""Pe"", ""IBRION"": 2, ""ISIF"": 2, ""ISMEAR"": 1, ""ISPIN"": 1, ""ISTART"": 0, ""KPAR"": 4, ""LORBIT"": 10, ""LPLANE"": false, ""LREAL"": ""Auto"", ""NCORE"": 4, ""NELM"": 120, ""NSIM"": 1, ""NSW"": 60, ""PREC"": ""Accurate"", ""SIGMA"": 0.2, ""SYSTEM"": ""Al-28-d-1.38""}",Al-28-d-1.38,450.0,1,1,0.2,Pe,"{""Ti"": 4.0, ""Al"": 3.0}",207.0,,Al
SegregationProfile-C1-Al-Al-29-d-2.59,SegregationProfile,SegregationProfile/C1/Al/Al-29-d-2.59,/mnt/e/Onedrive/TiGB-Project/Data/SegregationProfile/C1/Al/Al-29-d-2.59,CONTCAR,52,Ti51 Al1,915.1478097085853,4.478555332500511,-399.17964407,-7.676531616730769,"{""ALGO"": ""Normal"", ""AMIX"": 0.01, ""BMIX"": 0.0001, ""EDIFF"": 0.0001, ""EDIFFG"": -0.02, ""ENCUT"": 450.0, ""GGA"": ""Pe"", ""IBRION"": 2, ""ISIF"": 2, ""ISMEAR"": 1, ""ISPIN"": 1, ""ISTART"": 0, ""KPAR"": 4, ""LORBIT"": 10, ""LPLANE"": false, ""LREAL"": ""Auto"", ""NCORE"": 4, ""NELM"": 120, ""NSIM"": 1, ""NSW"": 60, ""PREC"": ""Accurate"", ""SIGMA"": 0.2, ""SYSTEM"": ""Al-29-d-2.59""}",Al-29-d-2.59,450.0,1,1,0.2,Pe,"{""Ti"": 4.0, ""Al"": 3.0}",207.0,,Al
SegregationProfile-C1-Al-Al-30-d-2.59,SegregationProfile,SegregationProfile/C1/Al/Al-30-d-2.59,/mnt/e/Onedrive/TiGB-Project/Data/SegregationProfile/C1/Al/Al-30-d-2.59,CONTCAR,52,Ti51 Al1,915.1478097085853,4.478555332500511,-399.17745314,-7.6764894834615385,"{""ALGO"": ""Fast"", ""AMIX"": 0.01, ""BMIX"": 0.0001, ""EDIFF"": 0.0001, ""EDIFFG"": -0.02, ""ENCUT"": 450.0, ""GGA"": ""Pe"", ""IBRION"": 2, ""ISIF"": 2, ""ISMEAR"": 1, ""ISPIN"": 1, ""ISTART"": 0, ""KPAR"": 4, ""LORBIT"": 10, ""LPLANE"": false, ""LREAL"": ""Auto"", ""NCORE"": 4, ""NELM"": 120, ""NSIM"": 1, ""NSW"": 60, ""PREC"": ""Accurate"", ""SIGMA"": 0.2, ""SYSTEM"": ""Al-30-d-2.59""}",Al-30-d-2.59,450.0,1,1,0.2,Pe,"{""Ti"": 4.0, ""Al"": 3.0}",207.0,,Al
SegregationProfile-C1-Al-Al-31-d-3.83,SegregationProfile,SegregationProfile/C1/Al/Al-31-d-3.83,/mnt/e/Onedrive/TiGB-Project/Data/SegregationProfile/C1/Al/Al-31-d-3.83,CONTCAR,52,Ti51 Al1,915.1478097085853,4.478555332500511,-399.02814928,-7.673618255384615,"{""ALGO"": ""Normal"", ""AMIX"": 0.01, ""BMIX"": 0.0001, ""EDIFF"": 0.0001, ""EDIFFG"": -0.02, ""ENCUT"": 450.0, ""GGA"": ""Pe"", ""IBRION"": 2, ""ISIF"": 2, ""ISMEAR"": 1, ""ISPIN"": 1, ""ISTART"": 0, ""KPAR"": 4, ""LORBIT"": 10, ""LPLANE"": false, ""LREAL"": ""Auto"", ""NCORE"": 4, ""NELM"": 120, ""NSIM"": 1, ""NSW"": 60, ""PREC"": ""Accurate"", ""SIGMA"": 0.2, ""SYSTEM"": ""Al-31-d-3.83""}",Al-31-d-3.83,450.0,1,1,0.2,Pe,"{""Ti"": 4.0, ""Al"": 3.0}",207.0,,Al
SegregationProfile-C1-Al-Al-32-d-3.83,SegregationProfile,SegregationProfile/C1/Al/Al-32-d-3.83,/mnt/e/Onedrive/TiGB-Project/Data/SegregationProfile/C1/Al/Al-32-d-3.83,CONTCAR,52,Ti51 Al1,915.1478097085853,4.478555332500511,-399.02794222,-7.6736142734615385,"{""ALGO"": ""Fast"", ""AMIX"": 0.01, ""BMIX"": 0.0001, ""EDIFF"": 0.0001, ""EDIFFG"": -0.02, ""ENCUT"": 450.0, ""GGA"": ""Pe"", ""IBRION"": 2, ""ISIF"": 2, ""ISMEAR"": 1, ""ISPIN"": 1, ""ISTART"": 0, ""KPAR"": 4, ""LORBIT"": 10, ""LPLANE"": false, ""LREAL"": ""Auto"", ""NCORE"": 4, ""NELM"": 120, ""NSIM"": 1, ""NSW"": 60, ""PREC"": ""Accurate"", ""SIGMA"": 0.2, ""SYSTEM"": ""Al-32-d-3.83""}",Al-32-d-3.83,450.0,1,1,0.2,Pe,"{""Ti"": 4.0, ""Al"": 3.0}",207.0,,Al
SegregationProfile-C1-Al-Al-33-d-5.07,SegregationProfile,SegregationProfile/C1/Al/Al-33-d-5.07,/mnt/e/Onedrive/TiGB-Project/Data/SegregationProfile/C1/Al/Al-33-d-5.07,CONTCAR,52,Ti51 Al1,915.1478097085853,4.478555332500511,-399.11488464,-7.675286243076924,"{""ALGO"": ""Normal"", ""AMIX"": 0.01, ""BMIX"": 0.0001, ""EDIFF"": 0.0001, ""EDIFFG"": -0.02, ""ENCUT"": 450.0, ""GGA"": ""Pe"", ""IBRION"": 2, ""ISIF"": 2, ""ISMEAR"": 1, ""ISPIN"": 1, ""ISTART"": 0, ""KPAR"": 4, ""LORBIT"": 10, ""LPLANE"": false, ""LREAL"": ""Auto"", ""NCORE"": 4, ""NELM"": 120, ""NSIM"": 1, ""NSW"": 60, ""PREC"": ""Accurate"", ""SIGMA"": 0.2, ""SYSTEM"": ""Al-33-d-5.07""}",Al-33-d-5.07,450.0,1,1,0.2,Pe,"{""Ti"": 4.0, ""Al"": 3.0}",207.0,,Al
SegregationProfile-C1-Al-Al-34-d-5.07,SegregationProfile,SegregationProfile/C1/Al/Al-34-d-5.07,/mnt/e/Onedrive/TiGB-Project/Data/SegregationProfile/C1/Al/Al-34-d-5.07,CONTCAR,52,Ti51 Al1,915.1478097085853,4.478555332500511,-399.11229657,-7.6752364725,"{""ALGO"": ""Fast"", ""AMIX"": 0.01, ""BMIX"": 0.0001, ""EDIFF"": 0.0001, ""EDIFFG"": -0.02, ""ENCUT"": 450.0, ""GGA"": ""Pe"", ""IBRION"": 2, ""ISIF"": 2, ""ISMEAR"": 1, ""ISPIN"": 1, ""ISTART"": 0, ""KPAR"": 4, ""LORBIT"": 10, ""LPLANE"": false, ""LREAL"": ""Auto"", ""NCORE"": 4, ""NELM"": 120, ""NSIM"": 1, ""NSW"": 60, ""PREC"": ""Accurate"", ""SIGMA"": 0.2, ""SYSTEM"": ""Al-34-d-5.07""}",Al-34-d-5.07,450.0,1,1,0.2,Pe,"{""Ti"": 4.0, ""Al"": 3.0}",207.0,,Al
SegregationProfile-C1-Al-Al-35-d-6.31,SegregationProfile,SegregationProfile/C1/Al/Al-35-d-6.31,/mnt/e/Onedrive/TiGB-Project/Data/SegregationProfile/C1/Al/Al-35-d-6.31,CONTCAR,52,Ti51 Al1,915.1478097085853,4.478555332500511,-399.0225516,-7.673510607692307,"{""ALGO"": ""Normal"", ""AMIX"": 0.01, ""BMIX"": 0.0001, ""EDIFF"": 0.0001, ""EDIFFG"": -0.02, ""ENCUT"": 450.0, ""GGA"": ""Pe"", ""IBRION"": 2, ""ISIF"": 2, ""ISMEAR"": 1, ""ISPIN"": 1, ""ISTART"": 0, ""KPAR"": 4, ""LORBIT"": 10, ""LPLANE"": false, ""LREAL"": ""Auto"", ""NCORE"": 4, ""NELM"": 120, ""NSIM"": 1, ""NSW"": 60, ""PREC"": ""Accurate"", ""SIGMA"": 0.2, ""SYSTEM"": ""Al-35-d-6.31""}",Al-35-d-6.31,450.0,1,1,0.2,Pe,"{""Ti"": 4.0, ""Al"": 3.0}",207.0,,Al
SegregationProfile-C1-Al-Al-36-d-6.31,SegregationProfile,SegregationProfile/C1/Al/Al-36-d-6.31,/mnt/e/Onedrive/TiGB-Project/Data/SegregationProfile/C1/Al/Al-36-d-6.31,CONTCAR,52,Ti51 Al1,915.1478097085853,4.478555332500511,-399.02132492,-7.673487017692308,"{""ALGO"": ""Fast"", ""AMIX"": 0.01, ""BMIX"": 0.0001, ""EDIFF"": 0.0001, ""EDIFFG"": -0.02, ""ENCUT"": 450.0, ""GGA"": ""Pe"", ""IBRION"": 2, ""ISIF"": 2, ""ISMEAR"": 1, ""ISPIN"": 1, ""ISTART"": 0, ""KPAR"": 4, ""LORBIT"": 10, ""LPLANE"": false, ""LREAL"": ""Auto"", ""NCORE"": 4, ""NELM"": 120, ""NSIM"": 1, ""NSW"": 60, ""PREC"": ""Accurate"", ""SIGMA"": 0.2, ""SYSTEM"": ""Al-36-d-6.31""}",Al-36-d-6.31,450.0,1,1,0.2,Pe,"{""Ti"": 4.0, ""Al"": 3.0}",207.0,,Al
SegregationProfile-C1-V-V-25-d-0.00,SegregationProfile,SegregationProfile/C1/V/V-25-d-0.00,/mnt/e/Onedrive/TiGB-Project/Data/SegregationProfile/C1/V/V-25-d-0.00,CONTCAR,52,Ti51 V1,915.1478097085853,4.522030770645507,-402.78763717,-7.745916099423076,"{""ALGO"": ""Fast"", ""AMIX"": 0.01, ""BMIX"": 0.0001, ""EDIFF"": 0.0001, ""EDIFFG"": -0.02, ""ENCUT"": 450.0, ""GGA"": ""Pe"", ""IBRION"": 2, ""ISIF"": 2, ""ISMEAR"": 1, ""ISPIN"": 1, ""ISTART"": 0, ""KPAR"": 4, ""LORBIT"": 10, ""LPLANE"": false, ""LREAL"": ""Auto"", ""NCORE"": 4, ""NELM"": 120, ""NSIM"": 1, ""NSW"": 60, ""PREC"": ""Accurate"", ""SIGMA"": 0.2, ""SYSTEM"": ""V-25-d-0.00""}",V-25-d-0.00,450.0,1,1,0.2,Pe,"{""Ti"": 4.0, ""V"": 5.0}",209.0,,V
SegregationProfile-C1-V-V-26-d-0.00,SegregationProfile,SegregationProfile/C1/V/V-26-d-0.00,/mnt/e/Onedrive/TiGB-Project/Data/SegregationProfile/C1/V/V-26-d-0.00,CONTCAR,52,Ti51 V1,915.1478097085853,4.522030770645507,-402.79075958,-7.74597614576923,"{""ALGO"": ""Fast"", ""AMIX"": 0.01, ""BMIX"": 0.0001, ""EDIFF"": 0.0001, ""EDIFFG"": -0.02, ""ENCUT"": 450.0, ""GGA"": ""Pe"", ""IBRION"": 2, ""ISIF"": 2, ""ISMEAR"": 1, ""ISPIN"": 1, ""ISTART"": 0, ""KPAR"": 4, ""LORBIT"": 10, ""LPLANE"": false, ""LREAL"": ""Auto"", ""NCORE"": 4, ""NELM"": 120, ""NSIM"": 1, ""NSW"": 60, ""PREC"": ""Accurate"", ""SIGMA"": 0.2, ""SYSTEM"": ""V-26-d-0.00""}",V-26-d-0.00,450.0,1,1,0.2,Pe,"{""Ti"": 4.0, ""V"": 5.0}",209.0,,V
SegregationProfile-C1-V-V-27-d-1.38,SegregationProfile,SegregationProfile/C1/V/V-27-d-1.38,/mnt/e/Onedrive/TiGB-Project/Data/SegregationProfile/C1/V/V-27-d-1.38,CONTCAR,52,Ti51 V1,915.1478097085853,4.522030770645507,-404.06441611,-7.770469540576924,"{""ALGO"": ""Normal"", ""AMIX"": 0.01, ""BMIX"": 0.0001, ""EDIFF"": 0.0001, ""EDIFFG"": -0.02, ""ENCUT"": 450.0, ""GGA"": ""Pe"", ""IBRION"": 2, ""ISIF"": 2, ""ISMEAR"": 1, ""ISPIN"": 1, ""ISTART"": 0, ""KPAR"": 4, ""LORBIT"": 10, ""LPLANE"": false, ""LREAL"": ""Auto"", ""NCORE"": 4, ""NELM"": 120, ""NSIM"": 1, ""NSW"": 60, ""PREC"": ""Accurate"", ""SIGMA"": 0.2, ""SYSTEM"": ""V-27-d-1.38""}",V-27-d-1.38,450.0,1,1,0.2,Pe,"{""Ti"": 4.0, ""V"": 5.0}",209.0,,V
SegregationProfile-C1-V-V-28-d-1.38,SegregationProfile,SegregationProfile/C1/V/V-28-d-1.38,/mnt/e/Onedrive/TiGB-Project/Data/SegregationProfile/C1/V/V-28-d-1.38,CONTCAR,52,Ti51 V1,915.1478097085853,4.522030770645507,-404.0639681,-7.770460925,"{""ALGO"": ""Fast"", ""AMIX"": 0.01, ""BMIX"": 0.0001, ""EDIFF"": 0.0001, ""EDIFFG"": -0.02, ""ENCUT"": 450.0, ""GGA"": ""Pe"", ""IBRION"": 2, ""ISIF"": 2, ""ISMEAR"": 1, ""ISPIN"": 1, ""ISTART"": 0, ""KPAR"": 4, ""LORBIT"": 10, ""LPLANE"": false, ""LREAL"": ""Auto"", ""NCORE"": 4, ""NELM"": 120, ""NSIM"": 1, ""NSW"": 60, ""PREC"": ""Accurate"", ""SIGMA"": 0.2, ""SYSTEM"": ""V-28-d-1.38""}",V-28-d-1.38,450.0,1,1,0.2,Pe,"{""Ti"": 4.0, ""V"": 5.0}",209.0,,V
SegregationProfile-C1-V-V-29-d-2.59,SegregationProfile,SegregationProfile/C1/V/V-29-d-2.59,/mnt/e/Onedrive/TiGB-Project/Data/SegregationProfile/C1/V/V-29-d-2.59,CONTCAR,52,Ti51 V1,915.1478097085853,4.522030770645507,-403.39059876,-7.757511514615384,"{""ALGO"": ""Normal"", ""AMIX"": 0.01, ""BMIX"": 0.0001, ""EDIFF"": 0.0001, ""EDIFFG"": -0.02, ""ENCUT"": 450.0, ""GGA"": ""Pe"", ""IBRION"": 2, ""ISIF"": 2, ""ISMEAR"": 1, ""ISPIN"": 1, ""ISTART"": 0, ""KPAR"": 4, ""LORBIT"": 10, ""LPLANE"": false, ""LREAL"": ""Auto"", ""NCORE"": 4, ""NELM"": 120, ""NSIM"": 1, ""NSW"": 60, ""PREC"": ""Accurate"", ""SIGMA"": 0.2, ""SYSTEM"": ""V-29-d-2.59""}",V-29-d-2.59,450.0,1,1,0.2,Pe,"{""Ti"": 4.0, ""V"": 5.0}",209.0,"vasprun:no element found: line 4674, column 0",V
SegregationProfile-C1-V-V-30-d-2.59,SegregationProfile,SegregationProfile/C1/V/V-30-d-2.59,/mnt/e/Onedrive/TiGB-Project/Data/SegregationProfile/C1/V/V-30-d-2.59,CONTCAR,52,Ti51 V1,915.1478097085853,4.522030770645507,-402.87246904,-7.7475474815384615,"{""ALGO"": ""Fast"", ""AMIX"": 0.01, ""BMIX"": 0.0001, ""EDIFF"": 0.0001, ""EDIFFG"": -0.02, ""ENCUT"": 450.0, ""GGA"": ""Pe"", ""IBRION"": 2, ""ISIF"": 2, ""ISMEAR"": 1, ""ISPIN"": 1, ""ISTART"": 0, ""KPAR"": 4, ""LORBIT"": 10, ""LPLANE"": false, ""LREAL"": ""Auto"", ""NCORE"": 4, ""NELM"": 120, ""NSIM"": 1, ""NSW"": 60, ""PREC"": ""Accurate"", ""SIGMA"": 0.2, ""SYSTEM"": ""V-30-d-2.59""}",V-30-d-2.59,450.0,1,1,0.2,Pe,"{""Ti"": 4.0, ""V"": 5.0}",209.0,,V
SegregationProfile-C1-V-V-31-d-3.83,SegregationProfile,SegregationProfile/C1/V/V-31-d-3.83,/mnt/e/Onedrive/TiGB-Project/Data/SegregationProfile/C1/V/V-31-d-3.83,CONTCAR,52,Ti51 V1,915.1478097085853,4.522030770645507,-402.86503545,-7.7474045278846155,"{""ALGO"": ""Normal"", ""AMIX"": 0.01, ""BMIX"": 0.0001, ""EDIFF"": 0.0001, ""EDIFFG"": -0.02, ""ENCUT"": 450.0, ""GGA"": ""Pe"", ""IBRION"": 2, ""ISIF"": 2, ""ISMEAR"": 1, ""ISPIN"": 1, ""ISTART"": 0, ""KPAR"": 4, ""LORBIT"": 10, ""LPLANE"": false, ""LREAL"": ""Auto"", ""NCORE"": 4, ""NELM"": 120, ""NSIM"": 1, ""NSW"": 60, ""PREC"": ""Accurate"", ""SIGMA"": 0.2, ""SYSTEM"": ""V-31-d-3.83""}",V-31-d-3.83,450.0,1,1,0.2,Pe,"{""Ti"": 4.0, ""V"": 5.0}",209.0,,V
SegregationProfile-C1-V-V-32-d-3.83,SegregationProfile,SegregationProfile/C1/V/V-32-d-3.83,/mnt/e/Onedrive/TiGB-Project/Data/SegregationProfile/C1/V/V-32-d-3.83,CONTCAR,52,Ti51 V1,915.1478097085853,4.522030770645507,-403.55802751,-7.7607312982692305,"{""ALGO"": ""Normal"", ""AMIX"": 0.01, ""BMIX"": 0.0001, ""EDIFF"": 0.0001, ""EDIFFG"": -0.02, ""ENCUT"": 450.0, ""GGA"": ""Pe"", ""IBRION"": 2, ""ISIF"": 2, ""ISMEAR"": 1, ""ISPIN"": 1, ""ISTART"": 0, ""KPAR"": 4, ""LORBIT"": 10, ""LPLANE"": false, ""LREAL"": ""Auto"", ""NCORE"": 4, ""NELM"": 120, ""NSIM"": 1, ""NSW"": 60, ""PREC"": ""Accurate"", ""SIGMA"": 0.2, ""SYSTEM"": ""V-32-d-3.83""}",V-32-d-3.83,450.0,1,1,0.2,Pe,"{""Ti"": 4.0, ""V"": 5.0}",209.0,,V