job_name,top_level,relpath,path,structure_file,num_atoms,formula,volume,density,energy_eV,energy_per_atom_eV,incar,incar_system,incar_encut,incar_ispin,incar_ismear,incar_sigma,incar_gga,potcar_nelectrons_map,potcar_total_nelectrons,parse_errors,solute
SegregationProfile-C1-V-V-33-d-5.07,SegregationProfile,SegregationProfile/C1/V/V-33-d-5.07,/mnt/e/Onedrive/TiGB-Project/Data/SegregationProfile/C1/V/V-33-d-5.07,CONTCAR,52,Ti51 V1,915.1478097085853,4.522030770645507,-402.87278499,-7.7475535575,"{""ALGO"": ""Normal"", ""AMIX"": 0.01, ""BMIX"": 0.0001, ""EDIFF"": 0.0001, ""EDIFFG"": -0.02, ""ENCUT"": 450.0, ""GGA"": ""Pe"", ""IBRION"": 2, ""ISIF"": 2, ""ISMEAR"": 1, ""ISPIN"": 1, ""ISTART"": 0, ""KPAR"": 4, ""LORBIT"": 10, ""LPLANE"": false, ""LREAL"": ""Auto"", ""NCORE"": 4, ""NELM"": 120, ""NSIM"": 1, ""NSW"": 60, ""PREC"": ""Accurate"", ""SIGMA"": 0.2, ""SYSTEM"": ""V-33-d-5.07""}",V-33-d-5.07,450.0,1,1,0.2,Pe,"{""Ti"": 4.0, ""V"": 5.0}",209.0,,V
SegregationProfile-C1-V-V-34-d-5.07,SegregationProfile,SegregationProfile/C1/V/V-34-d-5.07,/mnt/e/Onedrive/TiGB-Project/Data/SegregationProfile/C1/V/V-34-d-5.07,CONTCAR,52,Ti51 V1,915.1478097085853,4.522030770645507,-402.83672629,-7.746860120961538,"{""ALGO"": ""Fast"", ""AMIX"": 0.01, ""BMIX"": 0.0001, ""EDIFF"": 0.0001, ""EDIFFG"": -0.02, ""ENCUT"": 450.0, ""GGA"": ""Pe"", ""IBRION"": 2, ""ISIF"": 2, ""ISMEAR"": 1, ""ISPIN"": 1, ""ISTART"": 0, ""KPAR"": 4, ""LORBIT"": 10, ""LPLANE"": false, ""LREAL"": ""Auto"", ""NCORE"": 4, ""NELM"": 120, ""NSIM"": 1, ""NSW"": 60, ""PREC"": ""Accurate"", ""SIGMA"": 0.2, ""SYSTEM"": ""V-34-d-5.07""}",V-34-d-5.07,450.0,1,1,0.2,Pe,"{""Ti"": 4.0, ""V"": 5.0}",209.0,,V
SegregationProfile-C1-V-V-35-d-6.31,SegregationProfile,SegregationProfile/C1/V/V-35-d-6.31,/mnt/e/Onedrive/TiGB-Project/Data/SegregationProfile/C1/V/V-35-d-6.31,CONTCAR,52,Ti51 V1,915.1478097085853,4.522030770645507,-402.83556638,-7.746837815,"{""ALGO"": ""Normal"", ""AMIX"": 0.01, ""BMIX"": 0.0001, ""EDIFF"": 0.0001, ""EDIFFG"": -0.02, ""ENCUT"": 450.0, ""GGA"": ""Pe"", ""IBRION"": 2, ""ISIF"": 2, ""ISMEAR"": 1, ""ISPIN"": 1, ""ISTART"": 0, ""KPAR"": 4, ""LORBIT"": 10, ""LPLANE"": false, ""LREAL"": ""Auto"", ""NCORE"": 4, ""NELM"": 120, ""NSIM"": 1, ""NSW"": 60, ""PREC"": ""Accurate"", ""SIGMA"": 0.2, ""SYSTEM"": ""V-35-d-6.31""}",V-35-d-6.31,450.0,1,1,0.2,Pe,"{""Ti"": 4.0, ""V"": 5.0}",209.0,,V
SegregationProfile-C1-V-V-36-d-6.31,SegregationProfile,SegregationProfile/C1/V/V-36-d-6.31,/mnt/e/Onedrive/TiGB-Project/Data/SegregationProfile/C1/V/V-36-d-6.31,CONTCAR,52,Ti51 V1,915.1478097085853,4.522030770645507,-402.8338618,-7.746805034615385,"{""ALGO"": ""Fast"", ""AMIX"": 0.01, ""BMIX"": 0.0001, ""EDIFF"": 0.0001, ""EDIFFG"": -0.02, ""ENCUT"": 450.0, ""GGA"": ""Pe"", ""IBRION"": 2, ""ISIF"": 2, ""ISMEAR"": 1, ""ISPIN"": 1, ""ISTART"": 0, ""KPAR"": 4, ""LORBIT"": 10, ""LPLANE"": false, ""LREAL"": ""Auto"", ""NCORE"": 4, ""NELM"": 120, ""NSIM"": 1, ""NSW"": 60, ""PREC"": ""Accurate"", ""SIGMA"": 0.2, ""SYSTEM"": ""V-36-d-6.31""}",V-36-d-6.31,450.0,1,1,0.2,Pe,"{""Ti"": 4.0, ""V"": 5.0}",209.0,,V
SegregationProfile-CSL13-Al-Al-48-d-0.01,SegregationProfile,SegregationProfile/CSL13/Al/Al-48-d-0.01,/mnt/e/Onedrive/TiGB-Project/Data/SegregationProfile/CSL13/Al/Al-48-d-0.01,CONTCAR,100,Ti99 Al1,1763.444840425979,4.487705572157603,-771.6620716,-7.7166207159999995,"{""ALGO"": ""Normal"", ""AMIX"": 0.01, ""BMIX"": 0.0001, ""EDIFF"": 0.0001, ""EDIFFG"": -0.02, ""ENCUT"": 450.0, ""GGA"": ""Pe"", ""IBRION"": 2, ""ISIF"": 2, ""ISMEAR"": 1, ""ISPIN"": 1, ""ISTART"": 0, ""KPAR"": 4, ""LORBIT"": 10, ""LPLANE"": false, ""LREAL"": ""Auto"", ""NCORE"": 4, ""NELM"": 120, ""NSIM"": 1, ""NSW"": 60, ""PREC"": ""Accurate"", ""SIGMA"": 0.2, ""SYSTEM"": ""Al-48-d-0.01""}",Al-48-d-0.01,450.0,1,1,0.2,Pe,"{""Ti"": 4.0, ""Al"": 3.0}",399.0,,Al
SegregationProfile-CSL13-Al-Al-49-d-0.01,SegregationProfile,SegregationProfile/CSL13/Al/Al-49-d-0.01,/mnt/e/Onedrive/TiGB-Project/Data/SegregationProfile/CSL13/Al/Al-49-d-0.01,CONTCAR,100,Ti99 Al1,1763.444840425979,4.487705572157603,-771.63086651,-7.716308665100001,"{""ALGO"": ""Fast"", ""AMIX"": 0.01, ""BMIX"": 0.0001, ""EDIFF"": 0.0001, ""EDIFFG"": -0.02, ""ENCUT"": 450.0, ""GGA"": ""Pe"", ""IBRION"": 2, ""ISIF"": 2, ""ISMEAR"": 1, ""ISPIN"": 1, ""ISTART"": 0, ""KPAR"": 4, ""LORBIT"": 10, ""LPLANE"": false, ""LREAL"": ""Auto"", ""NCORE"": 4, ""NELM"": 120, ""NSIM"": 1, ""NSW"": 60, ""PREC"": ""Accurate"", ""SIGMA"": 0.2, ""SYSTEM"": ""Al-49-d-0.01""}",Al-49-d-0.01,450.0,1,1,0.2,Pe,"{""Ti"": 4.0, ""Al"": 3.0}",399.0,,Al
SegregationProfile-CSL13-Al-Al-50-d-0.00,SegregationProfile,SegregationProfile/CSL13/Al/Al-50-d-0.00,/mnt/e/Onedrive/TiGB-Project/Data/SegregationProfile/CSL13/Al/Al-50-d-0.00,CONTCAR,100,Ti99 Al1,1763.444840425979,4.487705572157603,-770.9636265,-7.709636265,"{""ALGO"": ""Normal"", ""AMIX"": 0.01, ""BMIX"": 0.0001, ""EDIFF"": 0.0001, ""EDIFFG"": -0.02, ""ENCUT"": 450.0, ""GGA"": ""Pe"", ""IBRION"": 2, ""ISIF"": 2, ""ISMEAR"": 1, ""ISPIN"": 1, ""ISTART"": 0, ""KPAR"": 4, ""LORBIT"": 10, ""LPLANE"": false, ""LREAL"": ""Auto"", ""NCORE"": 4, ""NELM"": 120, ""NSIM"": 1, ""NSW"": 60, ""PREC"": ""Accurate"", ""SIGMA"": 0.2, ""SYSTEM"": ""Al-50-d-0.00""}",Al-50-d-0.00,450.0,1,1,0.2,Pe,"{""Ti"": 4.0, ""Al"": 3.0}",399.0,,Al
SegregationProfile-CSL13-Al-Al-51-d-0.00,SegregationProfile,SegregationProfile/CSL13/Al/Al-51-d-0.00,/mnt/e/Onedrive/TiGB-Project/Data/SegregationProfile/CSL13/Al/Al-51-d-0.00,CONTCAR,100,Ti99 Al1,1763.444840425979,4.487705572157603,-770.97869653,-7.7097869653,"{""ALGO"": ""Fast"", ""AMIX"": 0.01, ""BMIX"": 0.0001, ""EDIFF"": 0.0001, ""EDIFFG"": -0.02, ""ENCUT"": 450.0, ""GGA"": ""Pe"", ""IBRION"": 2, ""ISIF"": 2, ""ISMEAR"": 1, ""ISPIN"": 1, ""ISTART"": 0, ""KPAR"": 4, ""LORBIT"": 10, ""LPLANE"": false, ""LREAL"": ""Auto"", ""NCORE"": 4, ""NELM"": 120, ""NSIM"": 1, ""NSW"": 60, ""PREC"": ""Accurate"", ""SIGMA"": 0.2, ""SYSTEM"": ""Al-51-d-0.00""}",Al-51-d-0.00,450.0,1,1,0.2,Pe,"{""Ti"": 4.0, ""Al"": 3.0}",399.0,,Al
SegregationProfile-CSL13-Al-Al-52-d-1.39,SegregationProfile,SegregationProfile/CSL13/Al/Al-52-d-1.39,/mnt/e/Onedrive/TiGB-Project/Data/SegregationProfile/CSL13/Al/Al-52-d-1.39,CONTCAR,100,Ti99 Al1,1763.444840425979,4.487705572157603,-771.50996334,-7.7150996334,"{""ALGO"": ""Normal"", ""AMIX"": 0.01, ""BMIX"": 0.0001, ""EDIFF"": 0.0001, ""EDIFFG"": -0.02, ""ENCUT"": 450.0, ""GGA"": ""Pe"", ""IBRION"": 2, ""ISIF"": 2, ""ISMEAR"": 1, ""ISPIN"": 1, ""ISTART"": 0, ""KPAR"": 4, ""LORBIT"": 10, ""LPLANE"": false, ""LREAL"": ""Auto"", ""NCORE"": 4, ""NELM"": 120, ""NSIM"": 1, ""NSW"": 60, ""PREC"": ""Accurate"", ""SIGMA"": 0.2, ""SYSTEM"": ""Al-52-d-1.39""}",Al-52-d-1.39,450.0,1,1,0.2,Pe,"{""Ti"": 4.0, ""Al"": 3.0}",399.0,,Al
SegregationProfile-CSL13-Al-Al-53-d-1.39,SegregationProfile,SegregationProfile/CSL13/Al/Al-53-d-1.39,/mnt/e/Onedrive/TiGB-Project/Data/SegregationProfile/CSL13/Al/Al-53-d-1.39,CONTCAR,100,Ti99 Al1,1763.444840425979,4.487705572157603,-771.51020396,-7.7151020396000005,"{""ALGO"": ""Fast"", ""AMIX"": 0.01, ""BMIX"": 0.0001, ""EDIFF"": 0.0001, ""EDIFFG"": -0.02, ""ENCUT"": 450.0, ""GGA"": ""Pe"", ""IBRION"": 2, ""ISIF"": 2, ""ISMEAR"": 1, ""ISPIN"": 1, ""ISTART"": 0, ""KPAR"": 4, ""LORBIT"": 10, ""LPLANE"": false, ""LREAL"": ""Auto"", ""NCORE"": 4, ""NELM"": 120, ""NSIM"": 1, ""NSW"": 60, ""PREC"": ""Accurate"", ""SIGMA"": 0.2, ""SYSTEM"": ""Al-53-d-1.39""}",Al-53-d-1.39,450.0,1,1,0.2,Pe,"{""Ti"": 4.0, ""Al"": 3.0}",399.0,,Al
SegregationProfile-CSL13-Al-Al-54-d-2.65,SegregationProfile,SegregationProfile/CSL13/Al/Al-54-d-2.65,/mnt/e/Onedrive/TiGB-Project/Data/SegregationProfile/CSL13/Al/Al-54-d-2.65,CONTCAR,100,Ti99 Al1,1763.444840425979,4.487705572157603,-771.57988863,-7.7157988863,"{""ALGO"": ""Normal"", ""AMIX"": 0.01, ""BMIX"": 0.0001, ""EDIFF"": 0.0001, ""EDIFFG"": -0.02, ""ENCUT"": 450.0, ""GGA"": ""Pe"", ""IBRION"": 2, ""ISIF"": 2, ""ISMEAR"": 1, ""ISPIN"": 1, ""ISTART"": 0, ""KPAR"": 4, ""LORBIT"": 10, ""LPLANE"": false, ""LREAL"": ""Auto"", ""NCORE"": 4, ""NELM"": 120, ""NSIM"": 1, ""NSW"": 60, ""PREC"": ""Accurate"", ""SIGMA"": 0.2, ""SYSTEM"": ""Al-54-d-2.65""}",Al-54-d-2.65,450.0,1,1,0.2,Pe,"{""Ti"": 4.0, ""Al"": 3.0}",399.0,,Al
SegregationProfile-CSL13-Al-Al-55-d-2.65,SegregationProfile,SegregationProfile/CSL13/Al/Al-55-d-2.65,/mnt/e/Onedrive/TiGB-Project/Data/SegregationProfile/CSL13/Al/Al-55-d-2.65,CONTCAR,100,Ti99 Al1,1763.444840425979,4.487705572157603,-771.59331545,-7.7159331545,"{""ALGO"": ""Fast"", ""AMIX"": 0.01, ""BMIX"": 0.0001, ""EDIFF"": 0.0001, ""EDIFFG"": -0.02, ""ENCUT"": 450.0, ""GGA"": ""Pe"", ""IBRION"": 2, ""ISIF"": 2, ""ISMEAR"": 1, ""ISPIN"": 1, ""ISTART"": 0, ""KPAR"": 4, ""LORBIT"": 10, ""LPLANE"": false, ""LREAL"": ""Auto"", ""NCORE"": 4, ""NELM"": 120, ""NSIM"": 1, ""NSW"": 60, ""PREC"": ""Accurate"", ""SIGMA"": 0.2, ""SYSTEM"": ""Al-55-d-2.65""}",Al-55-d-2.65,450.0,1,1,0.2,Pe,"{""Ti"": 4.0, ""Al"": 3.0}",399.0,,Al
SegregationProfile-CSL13-Al-Al-56-d-2.88,SegregationProfile,SegregationProfile/CSL13/Al/Al-56-d-2.88,/mnt/e/Onedrive/TiGB-Project/Data/SegregationProfile/CSL13/Al/Al-56-d-2.88,CONTCAR,100,Ti99 Al1,1763.444840425979,4.487705572157603,-771.45971039,-7.714597103900001,"{""ALGO"": ""Normal"", ""AMIX"": 0.01, ""BMIX"": 0.0001, ""EDIFF"": 0.0001, ""EDIFFG"": -0.02, ""ENCUT"": 450.0, ""GGA"": ""Pe"", ""IBRION"": 2, ""ISIF"": 2, ""ISMEAR"": 1, ""ISPIN"": 1, ""ISTART"": 0, ""KPAR"": 4, ""LORBIT"": 10, ""LPLANE"": false, ""LREAL"": ""Auto"", ""NCORE"": 4, ""NELM"": 120, ""NSIM"": 1, ""NSW"": 60, ""PREC"": ""Accurate"", ""SIGMA"": 0.2, ""SYSTEM"": ""Al-56-d-2.88""}",Al-56-d-2.88,450.0,1,1,0.2,Pe,"{""Ti"": 4.0, ""Al"": 3.0}",399.0,,Al
SegregationProfile-CSL13-Al-Al-57-d-2.88,SegregationProfile,SegregationProfile/CSL13/Al/Al-57-d-2.88,/mnt/e/Onedrive/TiGB-Project/Data/SegregationProfile/CSL13/Al/Al-57-d-2.88,CONTCAR,100,Ti99 Al1,1763.444840425979,4.487705572157603,-771.56642156,-7.7156642155999995,"{""ALGO"": ""Normal"", ""AMIX"": 0.01, ""BMIX"": 0.0001, ""EDIFF"": 0.0001, ""EDIFFG"": -0.02, ""ENCUT"": 450.0, ""GGA"": ""Pe"", ""IBRION"": 2, ""ISIF"": 2, ""ISMEAR"": 1, ""ISPIN"": 1, ""ISTART"": 0, ""KPAR"": 4, ""LORBIT"": 10, ""LPLANE"": false, ""LREAL"": ""Auto"", ""NCORE"": 4, ""NELM"": 120, ""NSIM"": 1, ""NSW"": 60, ""PREC"": ""Accurate"", ""SIGMA"": 0.2, ""SYSTEM"": ""Al-57-d-2.88""}",Al-57-d-2.88,450.0,1,1,0.2,Pe,"{""Ti"": 4.0, ""Al"": 3.0}",399.0,,Al
SegregationProfile-CSL13-Al-Al-58-d-4.19,SegregationProfile,SegregationProfile/CSL13/Al/Al-58-d-4.19,/mnt/e/Onedrive/TiGB-Project/Data/SegregationProfile/CSL13/Al/Al-58-d-4.19,CONTCAR,100,Ti99 Al1,1763.444840425979,4.487705572157603,-771.52621654,-7.7152621653999995,"{""ALGO"": ""Normal"", ""AMIX"": 0.01, ""BMIX"": 0.0001, ""EDIFF"": 0.0001, ""EDIFFG"": -0.02, ""ENCUT"": 450.0, ""GGA"": ""Pe"", ""IBRION"": 2, ""ISIF"": 2, ""ISMEAR"": 1, ""ISPIN"": 1, ""ISTART"": 0, ""KPAR"": 4, ""LORBIT"": 10, ""LPLANE"": false, ""LREAL"": ""Auto"", ""NCORE"": 4, ""NELM"": 120, ""NSIM"": 1, ""NSW"": 60, ""PREC"": ""Accurate"", ""SIGMA"": 0.2, ""SYSTEM"": ""Al-58-d-4.19""}",Al-58-d-4.19,450.0,1,1,0.2,Pe,"{""Ti"": 4.0, ""Al"": 3.0}",399.0,,Al
SegregationProfile-CSL13-Al-Al-59-d-4.19,SegregationProfile,SegregationProfile/CSL13/Al/Al-59-d-4.19,/mnt/e/Onedrive/TiGB-Project/Data/SegregationProfile/CSL13/Al/Al-59-d-4.19,CONTCAR,100,Ti99 Al1,1763.444840425979,4.487705572157603,-771.5632878,-7.715632878,"{""ALGO"": ""Fast"", ""AMIX"": 0.01, ""BMIX"": 0.0001, ""EDIFF"": 0.0001, ""EDIFFG"": -0.02, ""ENCUT"": 450.0, ""GGA"": ""Pe"", ""IBRION"": 2, ""ISIF"": 2, ""ISMEAR"": 1, ""ISPIN"": 1, ""ISTART"": 0, ""KPAR"": 4, ""LORBIT"": 10, ""LPLANE"": false, ""LREAL"": ""Auto"", ""NCORE"": 4, ""NELM"": 120, ""NSIM"": 1, ""NSW"": 60, ""PREC"": ""Accurate"", ""SIGMA"": 0.2, ""SYSTEM"": ""Al-59-d-4.19""}",Al-59-d-4.19,450.0,1,1,0.2,Pe,"{""Ti"": 4.0, ""Al"": 3.0}",399.0,,Al
SegregationProfile-CSL13-Al-Al-60-d-5.27,SegregationProfile,SegregationProfile/CSL13/Al/Al-60-d-5.27,/mnt/e/Onedrive/TiGB-Project/Data/SegregationProfile/CSL13/Al/Al-60-d-5.27,CONTCAR,100,Ti99 Al1,1763.444840425979,4.487705572157603,-771.65670676,-7.7165670676,"{""ALGO"": ""Normal"", ""AMIX"": 0.01, ""BMIX"": 0.0001, ""EDIFF"": 0.0001, ""EDIFFG"": -0.02, ""ENCUT"": 450.0, ""GGA"": ""Pe"", ""IBRION"": 2, ""ISIF"": 2, ""ISMEAR"": 1, ""ISPIN"": 1, ""ISTART"": 0, ""KPAR"": 4, ""LORBIT"": 10, ""LPLANE"": false, ""LREAL"": ""Auto"", ""NCORE"": 4, ""NELM"": 120, ""NSIM"": 1, ""NSW"": 60, ""PREC"": ""Accurate"", ""SIGMA"": 0.2, ""SYSTEM"": ""Al-60-d-5.27""}",Al-60-d-5.27,450.0,1,1,0.2,Pe,"{""Ti"": 4.0, ""Al"": 3.0}",399.0,,Al
SegregationProfile-CSL13-Al-Al-61-d-5.27,SegregationProfile,SegregationProfile/CSL13/Al/Al-61-d-5.27,/mnt/e/Onedrive/TiGB-Project/Data/SegregationProfile/CSL13/Al/Al-61-d-5.27,CONTCAR,100,Ti99 Al1,1763.444840425979,4.487705572157603,-771.65845085,-7.7165845085,"{""ALGO"": ""Fast"", ""AMIX"": 0.01, ""BMIX"": 0.0001, ""EDIFF"": 0.0001, ""EDIFFG"": -0.02, ""ENCUT"": 450.0, ""GGA"": ""Pe"", ""IBRION"": 2, ""ISIF"": 2, ""ISMEAR"": 1, ""ISPIN"": 1, ""ISTART"": 0, ""KPAR"": 4, ""LORBIT"": 10, ""LPLANE"": false, ""LREAL"": ""Auto"", ""NCORE"": 4, ""NELM"": 120, ""NSIM"": 1, ""NSW"": 60, ""PREC"": ""Accurate"", ""SIGMA"": 0.2, ""SYSTEM"": ""Al-61-d-5.27""}",Al-61-d-5.27,450.0,1,1,0.2,Pe,"{""Ti"": 4.0, ""Al"": 3.0}",399.0,,Al
SegregationProfile-CSL13-Al-Al-62-d-5.77,SegregationProfile,SegregationProfile/CSL13/Al/Al-62-d-5.77,/mnt/e/Onedrive/TiGB-Project/Data/SegregationProfile/CSL13/Al/Al-62-d-5.77,CONTCAR,100,Ti99 Al1,1763.444840425979,4.487705572157603,-771.49781108,-7.714978110800001,"{""ALGO"": ""Normal"", ""AMIX"": 0.01, ""BMIX"": 0.0001, ""EDIFF"": 0.0001, ""EDIFFG"": -0.02, ""ENCUT"": 450.0, ""GGA"": ""Pe"", ""IBRION"": 2, ""ISIF"": 2, ""ISMEAR"": 1, ""ISPIN"": 1, ""ISTART"": 0, ""KPAR"": 4, ""LORBIT"": 10, ""LPLANE"": false, ""LREAL"": ""Auto"", ""NCORE"": 4, ""NELM"": 120, ""NSIM"": 1, ""NSW"": 60, ""PREC"": ""Accurate"", ""SIGMA"": 0.2, ""SYSTEM"": ""Al-62-d-5.77""}",Al-62-d-5.77,450.0,1,1,0.2,Pe,"{""Ti"": 4.0, ""Al"": 3.0}",399.0,"vasprun:no element found: line 6766, column 0",Al
SegregationProfile-CSL13-Al-Al-63-d-5.77,SegregationProfile,SegregationProfile/CSL13/Al/Al-63-d-5.77,/mnt/e/Onedrive/TiGB-Project/Data/SegregationProfile/CSL13/Al/Al-63-d-5.77,CONTCAR,100,Ti99 Al1,1763.444840425979,4.487705572157603,-771.55267214,-7.7155267214,"{""ALGO"": ""Fast"", ""AMIX"": 0.01, ""BMIX"": 0.0001, ""EDIFF"": 0.0001, ""EDIFFG"": -0.02, ""ENCUT"": 450.0, ""GGA"": ""Pe"", ""IBRION"": 2, ""ISIF"": 2, ""ISMEAR"": 1, ""ISPIN"": 1, ""ISTART"": 0, ""KPAR"": 4, ""LORBIT"": 10, ""LPLANE"": false, ""LREAL"": ""Auto"", ""NCORE"": 4, ""NELM"": 120, ""NSIM"": 1, ""NSW"": 60, ""PREC"": ""Accurate"", ""SIGMA"": 0.2, ""SYSTEM"": ""Al-63-d-5.77""}",Al-63-d-5.77,450.0,1,1,0.2,Pe,"{""Ti"": 4.0, ""Al"": 3.0}",399.0,,Al
SegregationProfile-CSL13-Al-Al-64-d-6.97,SegregationProfile,SegregationProfile/CSL13/Al/Al-64-d-6.97,/mnt/e/Onedrive/TiGB-Project/Data/SegregationProfile/CSL13/Al/Al-64-d-6.97,CONTCAR,100,Ti99 Al1,1763.444840425979,4.487705572157603,-771.58352059,-7.7158352059,"{""ALGO"": ""Normal"", ""AMIX"": 0.01, ""BMIX"": 0.0001, ""EDIFF"": 0.0001, ""EDIFFG"": -0.02, ""ENCUT"": 450.0, ""GGA"": ""Pe"", ""IBRION"": 2, ""ISIF"": 2, ""ISMEAR"": 1, ""ISPIN"": 1, ""ISTART"": 0, ""KPAR"": 4, ""LORBIT"": 10, ""LPLANE"": false, ""LREAL"": ""Auto"", ""NCORE"": 4, ""NELM"": 120, ""NSIM"": 1, ""NSW"": 60, ""PREC"": ""Accurate"", ""SIGMA"": 0.2, ""SYSTEM"": ""Al-64-d-6.97""}",Al-64-d-6.97,450.0,1,1,0.2,Pe,"{""Ti"": 4.0, ""Al"": 3.0}",399.0,,Al
SegregationProfile-CSL13-Al-Al-65-d-6.97,SegregationProfile,SegregationProfile/CSL13/Al/Al-65-d-6.97,/mnt/e/Onedrive/TiGB-Project/Data/SegregationProfile/CSL13/Al/Al-65-d-6.97,CONTCAR,100,Ti99 Al1,1763.444840425979,4.487705572157603,-771.57453687,-7.7157453686999995,"{""ALGO"": ""Fast"", ""AMIX"": 0.01, ""BMIX"": 0.0001, ""EDIFF"": 0.0001, ""EDIFFG"": -0.02, ""ENCUT"": 450.0, ""GGA"": ""Pe"", ""IBRION"": 2, ""ISIF"": 2, ""ISMEAR"": 1, ""ISPIN"": 1, ""ISTART"": 0, ""KPAR"": 4, ""LORBIT"": 10, ""LPLANE"": false, ""LREAL"": ""Auto"", ""NCORE"": 4, ""NELM"": 120, ""NSIM"": 1, ""NSW"": 60, ""PREC"": ""Accurate"", ""SIGMA"": 0.2, ""SYSTEM"": ""Al-65-d-6.97""}",Al-65-d-6.97,450.0,1,1,0.2,Pe,"{""Ti"": 4.0, ""Al"": 3.0}",399.0,,Al
SegregationProfile-CSL13-V-V-48-d-0.01,SegregationProfile,SegregationProfile/CSL13/V/V-48-d-0.01,/mnt/e/Onedrive/TiGB-Project/Data/SegregationProfile/CSL13/V/V-48-d-0.01,CONTCAR,100,Ti99 V1,1763.444840425979,4.510267350718766,-775.49952,-7.7549952,"{""ALGO"": ""Fast"", ""AMIX"": 0.01, ""BMIX"": 0.0001, ""EDIFF"": 0.0001, ""EDIFFG"": -0.02, ""ENCUT"": 450.0, ""GGA"": ""Pe"", ""IBRION"": 2, ""ISIF"": 2, ""ISMEAR"": 1, ""ISPIN"": 1, ""ISTART"": 0, ""KPAR"": 4, ""LORBIT"": 10, ""LPLANE"": false, ""LREAL"": ""Auto"", ""NCORE"": 4, ""NELM"": 120, ""NSIM"": 1, ""NSW"": 60, ""PREC"": ""Accurate"", ""SIGMA"": 0.2, ""SYSTEM"": ""V-48-d-0.01""}",V-48-d-0.01,450.0,1,1,0.2,Pe,"{""Ti"": 4.0, ""V"": 5.0}",401.0,,V
SegregationProfile-CSL13-V-V-49-d-0.01,SegregationProfile,SegregationProfile/CSL13/V/V-49-d-0.01,/mnt/e/Onedrive/TiGB-Project/Data/SegregationProfile/CSL13/V/V-49-d-0.01,CONTCAR,100,Ti99 V1,1763.444840425979,4.510267350718766,-775.50406537,-7.7550406537,"{""ALGO"": ""Fast"", ""AMIX"": 0.01, ""BMIX"": 0.0001, ""EDIFF"": 0.0001, ""EDIFFG"": -0.02, ""ENCUT"": 450.0, ""GGA"": ""Pe"", ""IBRION"": 2, ""ISIF"": 2, ""ISMEAR"": 1, ""ISPIN"": 1, ""ISTART"": 0, ""KPAR"": 4, ""LORBIT"": 10, ""LPLANE"": false, ""LREAL"": ""Auto"", ""NCORE"": 4, ""NELM"": 120, ""NSIM"": 1, ""NSW"": 60, ""PREC"": ""Accurate"", ""SIGMA"": 0.2, ""SYSTEM"": ""V-49-d-0.01""}",V-49-d-0.01,450.0,1,1,0.2,Pe,"{""Ti"": 4.0, ""V"": 5.0}",401.0,,V
SegregationProfile-CSL13-V-V-50-d-0.00,SegregationProfile,SegregationProfile/CSL13/V/V-50-d-0.00,/mnt/e/Onedrive/TiGB-Project/Data/SegregationProfile/CSL13/V/V-50-d-0.00,CONTCAR,100,Ti99 V1,1763.444840425979,4.510267350718766,-775.41466886,-7.7541466886,"{""ALGO"": ""Normal"", ""AMIX"": 0.01, ""BMIX"": 0.0001, ""EDIFF"": 0.0001, ""EDIFFG"": -0.02, ""ENCUT"": 450.0, ""GGA"": ""Pe"", ""IBRION"": 2, ""ISIF"": 2, ""ISMEAR"": 1, ""ISPIN"": 1, ""ISTART"": 0, ""KPAR"": 4, ""LORBIT"": 10, ""LPLANE"": false, ""LREAL"": ""Auto"", ""NCORE"": 4, ""NELM"": 120, ""NSIM"": 1, ""NSW"": 60, ""PREC"": ""Accurate"", ""SIGMA"": 0.2, ""SYSTEM"": ""V-50-d-0.00""}",V-50-d-0.00,450.0,1,1,0.2,Pe,"{""Ti"": 4.0, ""V"": 5.0}",401.0,,V
SegregationProfile-CSL13-V-V-51-d-0.00,SegregationProfile,SegregationProfile/CSL13/V/V-51-d-0.00,/mnt/e/Onedrive/TiGB-Project/Data/SegregationProfile/CSL13/V/V-51-d-0.00,CONTCAR,100,Ti99 V1,1763.444840425979,4.510267350718766,-775.41369159,-7.7541369159,"{""ALGO"": ""Fast"", ""AMIX"": 0.01, ""BMIX"": 0.0001, ""EDIFF"": 0.0001, ""EDIFFG"": -0.02, ""ENCUT"": 450.0, ""GGA"": ""Pe"", ""IBRION"": 2, ""ISIF"": 2, ""ISMEAR"": 1, ""ISPIN"": 1, ""ISTART"": 0, ""KPAR"": 4, ""LORBIT"": 10, ""LPLANE"": false, ""LREAL"": ""Auto"", ""NCORE"": 4, ""NELM"": 120, ""NSIM"": 1, ""NSW"": 60, ""PREC"": ""Accurate"", ""SIGMA"": 0.2, ""SYSTEM"": ""V-51-d-0.00""}",V-51-d-0.00,450.0,1,1,0.2,Pe,"{""Ti"": 4.0, ""V"": 5.0}",401.0,,V
SegregationProfile-CSL13-V-V-52-d-1.39,SegregationProfile,SegregationProfile/CSL13/V/V-52-d-1.39,/mnt/e/Onedrive/TiGB-Project/Data/SegregationProfile/CSL13/V/V-52-d-1.39,CONTCAR,100,Ti99 V1,1763.444840425979,4.510267350718766,-775.57913808,-7.7557913808,"{""ALGO"": ""Normal"", ""AMIX"": 0.01, ""BMIX"": 0.0001, ""EDIFF"": 0.0001, ""EDIFFG"": -0.02, ""ENCUT"": 450.0, ""GGA"": ""Pe"", ""IBRION"": 2, ""ISIF"": 2, ""ISMEAR"": 1, ""ISPIN"": 1, ""ISTART"": 0, ""KPAR"": 4, ""LORBIT"": 10, ""LPLANE"": false, ""LREAL"": ""Auto"", ""NCORE"": 4, ""NELM"": 120, ""NSIM"": 1, ""NSW"": 60, ""PREC"": ""Accurate"", ""SIGMA"": 0.2, ""SYSTEM"": ""V-52-d-1.39""}",V-52-d-1.39,450.0,1,1,0.2,Pe,"{""Ti"": 4.0, ""V"": 5.0}",401.0,,V