job_name,top_level,relpath,path,structure_file,num_atoms,formula,volume,density,energy_eV,energy_per_atom_eV,incar,incar_system,incar_encut,incar_ispin,incar_ismear,incar_sigma,incar_gga,potcar_nelectrons_map,potcar_total_nelectrons,parse_errors,solute
Segregation-1sol-addvac-C1-Al-Al-34-d-5.07,Segregation-1sol-addvac,Segregation-1sol-addvac/C1/Al/Al-34-d-5.07,/mnt/e/Onedrive/TiGB-Project/Data/Segregation-1sol-addvac/C1/Al/Al-34-d-5.07,CONTCAR,52,Ti51 Al1,1362.6127680076254,3.007853881473104,-392.38138917,-7.545795945576923,"{""ALGO"": ""Fast"", ""AMIX"": 0.01, ""BMIX"": 0.0001, ""EDIFF"": 0.0001, ""EDIFFG"": -0.02, ""ENCUT"": 450.0, ""GGA"": ""Pe"", ""IBRION"": 2, ""ISIF"": 2, ""ISMEAR"": 1, ""ISPIN"": 1, ""ISTART"": 0, ""KPAR"": 4, ""LORBIT"": 10, ""LPLANE"": false, ""LREAL"": ""Auto"", ""NCORE"": 4, ""NELM"": 120, ""NSIM"": 1, ""NSW"": 60, ""PREC"": ""Accurate"", ""SIGMA"": 0.2, ""SYSTEM"": ""Al-34-d-5.07""}",Al-34-d-5.07,450.0,1,1,0.2,Pe,"{""Ti"": 4.0, ""Al"": 3.0}",207.0,,Al
Segregation-1sol-addvac-C1-Al-Al-36-d-6.31,Segregation-1sol-addvac,Segregation-1sol-addvac/C1/Al/Al-36-d-6.31,/mnt/e/Onedrive/TiGB-Project/Data/Segregation-1sol-addvac/C1/Al/Al-36-d-6.31,CONTCAR,52,Ti51 Al1,1362.6127680076254,3.007853881473104,-392.69918239,-7.551907353653846,"{""ALGO"": ""Fast"", ""AMIX"": 0.01, ""BMIX"": 0.0001, ""EDIFF"": 0.0001, ""EDIFFG"": -0.02, ""ENCUT"": 450.0, ""GGA"": ""Pe"", ""IBRION"": 2, ""ISIF"": 2, ""ISMEAR"": 1, ""ISPIN"": 1, ""ISTART"": 0, ""KPAR"": 4, ""LORBIT"": 10, ""LPLANE"": false, ""LREAL"": ""Auto"", ""NCORE"": 4, ""NELM"": 120, ""NSIM"": 1, ""NSW"": 60, ""PREC"": ""Accurate"", ""SIGMA"": 0.2, ""SYSTEM"": ""Al-36-d-6.31""}",Al-36-d-6.31,450.0,1,1,0.2,Pe,"{""Ti"": 4.0, ""Al"": 3.0}",207.0,,Al
Segregation-1sol-addvac-C1-V-V-26-d-0.00,Segregation-1sol-addvac,Segregation-1sol-addvac/C1/V/V-26-d-0.00,/mnt/e/Onedrive/TiGB-Project/Data/Segregation-1sol-addvac/C1/V/V-26-d-0.00,CONTCAR,52,Ti51 V1,1362.6127680076254,3.037052530516067,-396.78912314,-7.6305600603846155,"{""ALGO"": ""Fast"", ""AMIX"": 0.01, ""BMIX"": 0.0001, ""EDIFF"": 0.0001, ""EDIFFG"": -0.02, ""ENCUT"": 450.0, ""GGA"": ""Pe"", ""IBRION"": 2, ""ISIF"": 2, ""ISMEAR"": 1, ""ISPIN"": 1, ""ISTART"": 0, ""KPAR"": 4, ""LORBIT"": 10, ""LPLANE"": false, ""LREAL"": ""Auto"", ""NCORE"": 4, ""NELM"": 120, ""NSIM"": 1, ""NSW"": 60, ""PREC"": ""Accurate"", ""SIGMA"": 0.2, ""SYSTEM"": ""V-26-d-0.00""}",V-26-d-0.00,450.0,1,1,0.2,Pe,"{""Ti"": 4.0, ""V"": 5.0}",209.0,,V
Segregation-1sol-addvac-C1-V-V-27-d-1.38,Segregation-1sol-addvac,Segregation-1sol-addvac/C1/V/V-27-d-1.38,/mnt/e/Onedrive/TiGB-Project/Data/Segregation-1sol-addvac/C1/V/V-27-d-1.38,CONTCAR,52,Ti51 V1,1362.6127680076254,3.037052530516067,-397.32964635,-7.6409547375,"{""ALGO"": ""Normal"", ""AMIX"": 0.01, ""BMIX"": 0.0001, ""EDIFF"": 0.0001, ""EDIFFG"": -0.02, ""ENCUT"": 450.0, ""GGA"": ""Pe"", ""IBRION"": 2, ""ISIF"": 2, ""ISMEAR"": 1, ""ISPIN"": 1, ""ISTART"": 0, ""KPAR"": 4, ""LORBIT"": 10, ""LPLANE"": false, ""LREAL"": ""Auto"", ""NCORE"": 4, ""NELM"": 120, ""NSIM"": 1, ""NSW"": 60, ""PREC"": ""Accurate"", ""SIGMA"": 0.2, ""SYSTEM"": ""V-27-d-1.38""}",V-27-d-1.38,450.0,1,1,0.2,Pe,"{""Ti"": 4.0, ""V"": 5.0}",209.0,,V
Segregation-1sol-addvac-C1-V-V-28-d-1.38,Segregation-1sol-addvac,Segregation-1sol-addvac/C1/V/V-28-d-1.38,/mnt/e/Onedrive/TiGB-Project/Data/Segregation-1sol-addvac/C1/V/V-28-d-1.38,CONTCAR,52,Ti51 V1,1362.6127680076254,3.037052530516067,-397.32756937,-7.640914795576923,"{""ALGO"": ""Fast"", ""AMIX"": 0.01, ""BMIX"": 0.0001, ""EDIFF"": 0.0001, ""EDIFFG"": -0.02, ""ENCUT"": 450.0, ""GGA"": ""Pe"", ""IBRION"": 2, ""ISIF"": 2, ""ISMEAR"": 1, ""ISPIN"": 1, ""ISTART"": 0, ""KPAR"": 4, ""LORBIT"": 10, ""LPLANE"": false, ""LREAL"": ""Auto"", ""NCORE"": 4, ""NELM"": 120, ""NSIM"": 1, ""NSW"": 60, ""PREC"": ""Accurate"", ""SIGMA"": 0.2, ""SYSTEM"": ""V-28-d-1.38""}",V-28-d-1.38,450.0,1,1,0.2,Pe,"{""Ti"": 4.0, ""V"": 5.0}",209.0,,V
Segregation-1sol-addvac-C1-V-V-30-d-2.59,Segregation-1sol-addvac,Segregation-1sol-addvac/C1/V/V-30-d-2.59,/mnt/e/Onedrive/TiGB-Project/Data/Segregation-1sol-addvac/C1/V/V-30-d-2.59,CONTCAR,52,Ti51 V1,1362.6127680076254,3.037052530516067,-397.39394713,-7.642191290961539,"{""ALGO"": ""Fast"", ""AMIX"": 0.01, ""BMIX"": 0.0001, ""EDIFF"": 0.0001, ""EDIFFG"": -0.02, ""ENCUT"": 450.0, ""GGA"": ""Pe"", ""IBRION"": 2, ""ISIF"": 2, ""ISMEAR"": 1, ""ISPIN"": 1, ""ISTART"": 0, ""KPAR"": 4, ""LORBIT"": 10, ""LPLANE"": false, ""LREAL"": ""Auto"", ""NCORE"": 4, ""NELM"": 120, ""NSIM"": 1, ""NSW"": 60, ""PREC"": ""Accurate"", ""SIGMA"": 0.2, ""SYSTEM"": ""V-30-d-2.59""}",V-30-d-2.59,450.0,1,1,0.2,Pe,"{""Ti"": 4.0, ""V"": 5.0}",209.0,,V
Segregation-1sol-addvac-C1-V-V-32-d-3.83,Segregation-1sol-addvac,Segregation-1sol-addvac/C1/V/V-32-d-3.83,/mnt/e/Onedrive/TiGB-Project/Data/Segregation-1sol-addvac/C1/V/V-32-d-3.83,CONTCAR,52,Ti51 V1,1362.6127680076254,3.037052530516067,-396.77639932,-7.630315371538462,"{""ALGO"": ""Fast"", ""AMIX"": 0.01, ""BMIX"": 0.0001, ""EDIFF"": 0.0001, ""EDIFFG"": -0.02, ""ENCUT"": 450.0, ""GGA"": ""Pe"", ""IBRION"": 2, ""ISIF"": 2, ""ISMEAR"": 1, ""ISPIN"": 1, ""ISTART"": 0, ""KPAR"": 4, ""LORBIT"": 10, ""LPLANE"": false, ""LREAL"": ""Auto"", ""NCORE"": 4, ""NELM"": 120, ""NSIM"": 1, ""NSW"": 60, ""PREC"": ""Accurate"", ""SIGMA"": 0.2, ""SYSTEM"": ""V-32-d-3.83""}",V-32-d-3.83,450.0,1,1,0.2,Pe,"{""Ti"": 4.0, ""V"": 5.0}",209.0,,V
Segregation-1sol-addvac-C1-V-V-34-d-5.07,Segregation-1sol-addvac,Segregation-1sol-addvac/C1/V/V-34-d-5.07,/mnt/e/Onedrive/TiGB-Project/Data/Segregation-1sol-addvac/C1/V/V-34-d-5.07,CONTCAR,52,Ti51 V1,1362.6127680076254,3.037052530516067,-396.82665471,-7.631281821346154,"{""ALGO"": ""Fast"", ""AMIX"": 0.01, ""BMIX"": 0.0001, ""EDIFF"": 0.0001, ""EDIFFG"": -0.02, ""ENCUT"": 450.0, ""GGA"": ""Pe"", ""IBRION"": 2, ""ISIF"": 2, ""ISMEAR"": 1, ""ISPIN"": 1, ""ISTART"": 0, ""KPAR"": 4, ""LORBIT"": 10, ""LPLANE"": false, ""LREAL"": ""Auto"", ""NCORE"": 4, ""NELM"": 120, ""NSIM"": 1, ""NSW"": 60, ""PREC"": ""Accurate"", ""SIGMA"": 0.2, ""SYSTEM"": ""V-34-d-5.07""}",V-34-d-5.07,450.0,1,1,0.2,Pe,"{""Ti"": 4.0, ""V"": 5.0}",209.0,,V
Segregation-1sol-addvac-C1-V-V-36-d-6.31,Segregation-1sol-addvac,Segregation-1sol-addvac/C1/V/V-36-d-6.31,/mnt/e/Onedrive/TiGB-Project/Data/Segregation-1sol-addvac/C1/V/V-36-d-6.31,CONTCAR,52,Ti51 V1,1362.6127680076254,3.037052530516067,-396.55608685,-7.626078593269231,"{""ALGO"": ""Fast"", ""AMIX"": 0.01, ""BMIX"": 0.0001, ""EDIFF"": 0.0001, ""EDIFFG"": -0.02, ""ENCUT"": 450.0, ""GGA"": ""Pe"", ""IBRION"": 2, ""ISIF"": 2, ""ISMEAR"": 1, ""ISPIN"": 1, ""ISTART"": 0, ""KPAR"": 4, ""LORBIT"": 10, ""LPLANE"": false, ""LREAL"": ""Auto"", ""NCORE"": 4, ""NELM"": 120, ""NSIM"": 1, ""NSW"": 60, ""PREC"": ""Accurate"", ""SIGMA"": 0.2, ""SYSTEM"": ""V-36-d-6.31""}",V-36-d-6.31,450.0,1,1,0.2,Pe,"{""Ti"": 4.0, ""V"": 5.0}",209.0,,V
Segregation-1sol-addvac-CSL13-Al-Al-49-d-0.01,Segregation-1sol-addvac,Segregation-1sol-addvac/CSL13/Al/Al-49-d-0.01,/mnt/e/Onedrive/TiGB-Project/Data/Segregation-1sol-addvac/CSL13/Al/Al-49-d-0.01,CONTCAR,100,Ti99 Al1,2379.742335475211,3.3254949994373777,-761.72634648,-7.6172634648,"{""ALGO"": ""Fast"", ""AMIX"": 0.01, ""BMIX"": 0.0001, ""EDIFF"": 0.0001, ""EDIFFG"": -0.02, ""ENCUT"": 450.0, ""GGA"": ""Pe"", ""IBRION"": 2, ""ISIF"": 2, ""ISMEAR"": 1, ""ISPIN"": 1, ""ISTART"": 0, ""KPAR"": 4, ""LORBIT"": 10, ""LPLANE"": false, ""LREAL"": ""Auto"", ""NCORE"": 4, ""NELM"": 120, ""NSIM"": 1, ""NSW"": 60, ""PREC"": ""Accurate"", ""SIGMA"": 0.2, ""SYSTEM"": ""Al-49-d-0.01""}",Al-49-d-0.01,450.0,1,1,0.2,Pe,"{""Ti"": 4.0, ""Al"": 3.0}",399.0,,Al
Segregation-1sol-addvac-CSL13-Al-Al-51-d-0.00,Segregation-1sol-addvac,Segregation-1sol-addvac/CSL13/Al/Al-51-d-0.00,/mnt/e/Onedrive/TiGB-Project/Data/Segregation-1sol-addvac/CSL13/Al/Al-51-d-0.00,CONTCAR,100,Ti99 Al1,2379.742335475211,3.3254949994373777,-761.56962113,-7.6156962112999995,"{""ALGO"": ""Fast"", ""AMIX"": 0.01, ""BMIX"": 0.0001, ""EDIFF"": 0.0001, ""EDIFFG"": -0.02, ""ENCUT"": 450.0, ""GGA"": ""Pe"", ""IBRION"": 2, ""ISIF"": 2, ""ISMEAR"": 1, ""ISPIN"": 1, ""ISTART"": 0, ""KPAR"": 4, ""LORBIT"": 10, ""LPLANE"": false, ""LREAL"": ""Auto"", ""NCORE"": 4, ""NELM"": 120, ""NSIM"": 1, ""NSW"": 60, ""PREC"": ""Accurate"", ""SIGMA"": 0.2, ""SYSTEM"": ""Al-51-d-0.00""}",Al-51-d-0.00,450.0,1,1,0.2,Pe,"{""Ti"": 4.0, ""Al"": 3.0}",399.0,,Al
Segregation-1sol-addvac-CSL13-Al-Al-53-d-1.39,Segregation-1sol-addvac,Segregation-1sol-addvac/CSL13/Al/Al-53-d-1.39,/mnt/e/Onedrive/TiGB-Project/Data/Segregation-1sol-addvac/CSL13/Al/Al-53-d-1.39,CONTCAR,100,Ti99 Al1,2379.742335475211,3.3254949994373777,-761.51062423,-7.6151062422999996,"{""ALGO"": ""Fast"", ""AMIX"": 0.01, ""BMIX"": 0.0001, ""EDIFF"": 0.0001, ""EDIFFG"": -0.02, ""ENCUT"": 450.0, ""GGA"": ""Pe"", ""IBRION"": 2, ""ISIF"": 2, ""ISMEAR"": 1, ""ISPIN"": 1, ""ISTART"": 0, ""KPAR"": 4, ""LORBIT"": 10, ""LPLANE"": false, ""LREAL"": ""Auto"", ""NCORE"": 4, ""NELM"": 120, ""NSIM"": 1, ""NSW"": 60, ""PREC"": ""Accurate"", ""SIGMA"": 0.2, ""SYSTEM"": ""Al-53-d-1.39""}",Al-53-d-1.39,450.0,1,1,0.2,Pe,"{""Ti"": 4.0, ""Al"": 3.0}",399.0,,Al
Segregation-1sol-addvac-CSL13-Al-Al-55-d-2.65,Segregation-1sol-addvac,Segregation-1sol-addvac/CSL13/Al/Al-55-d-2.65,/mnt/e/Onedrive/TiGB-Project/Data/Segregation-1sol-addvac/CSL13/Al/Al-55-d-2.65,CONTCAR,100,Ti99 Al1,2379.742335475211,3.3254949994373777,-761.64768854,-7.6164768854,"{""ALGO"": ""Fast"", ""AMIX"": 0.01, ""BMIX"": 0.0001, ""EDIFF"": 0.0001, ""EDIFFG"": -0.02, ""ENCUT"": 450.0, ""GGA"": ""Pe"", ""IBRION"": 2, ""ISIF"": 2, ""ISMEAR"": 1, ""ISPIN"": 1, ""ISTART"": 0, ""KPAR"": 4, ""LORBIT"": 10, ""LPLANE"": false, ""LREAL"": ""Auto"", ""NCORE"": 4, ""NELM"": 120, ""NSIM"": 1, ""NSW"": 60, ""PREC"": ""Accurate"", ""SIGMA"": 0.2, ""SYSTEM"": ""Al-55-d-2.65""}",Al-55-d-2.65,450.0,1,1,0.2,Pe,"{""Ti"": 4.0, ""Al"": 3.0}",399.0,,Al
Segregation-1sol-addvac-CSL13-Al-Al-56-d-2.88,Segregation-1sol-addvac,Segregation-1sol-addvac/CSL13/Al/Al-56-d-2.88,/mnt/e/Onedrive/TiGB-Project/Data/Segregation-1sol-addvac/CSL13/Al/Al-56-d-2.88,CONTCAR,100,Ti99 Al1,2379.742335475211,3.3254949994373777,-761.56022529,-7.6156022529,"{""ALGO"": ""Fast"", ""AMIX"": 0.01, ""BMIX"": 0.0001, ""EDIFF"": 0.0001, ""EDIFFG"": -0.02, ""ENCUT"": 450.0, ""GGA"": ""Pe"", ""IBRION"": 2, ""ISIF"": 2, ""ISMEAR"": 1, ""ISPIN"": 1, ""ISTART"": 0, ""KPAR"": 4, ""LORBIT"": 10, ""LPLANE"": false, ""LREAL"": ""Auto"", ""NCORE"": 4, ""NELM"": 120, ""NSIM"": 1, ""NSW"": 60, ""PREC"": ""Accurate"", ""SIGMA"": 0.2, ""SYSTEM"": ""Al-56-d-2.88""}",Al-56-d-2.88,450.0,1,1,0.2,Pe,"{""Ti"": 4.0, ""Al"": 3.0}",399.0,"vasprun:no element found: line 7509, column 0",Al
Segregation-1sol-addvac-CSL13-Al-Al-57-d-2.88,Segregation-1sol-addvac,Segregation-1sol-addvac/CSL13/Al/Al-57-d-2.88,/mnt/e/Onedrive/TiGB-Project/Data/Segregation-1sol-addvac/CSL13/Al/Al-57-d-2.88,CONTCAR,100,Ti99 Al1,2379.742335475211,3.3254949994373777,-761.62977615,-7.6162977615,"{""ALGO"": ""Fast"", ""AMIX"": 0.01, ""BMIX"": 0.0001, ""EDIFF"": 0.0001, ""EDIFFG"": -0.02, ""ENCUT"": 450.0, ""GGA"": ""Pe"", ""IBRION"": 2, ""ISIF"": 2, ""ISMEAR"": 1, ""ISPIN"": 1, ""ISTART"": 0, ""KPAR"": 4, ""LORBIT"": 10, ""LPLANE"": false, ""LREAL"": ""Auto"", ""NCORE"": 4, ""NELM"": 120, ""NSIM"": 1, ""NSW"": 60, ""PREC"": ""Accurate"", ""SIGMA"": 0.2, ""SYSTEM"": ""Al-57-d-2.88""}",Al-57-d-2.88,450.0,1,1,0.2,Pe,"{""Ti"": 4.0, ""Al"": 3.0}",399.0,,Al
Segregation-1sol-addvac-CSL13-Al-Al-58-d-4.19,Segregation-1sol-addvac,Segregation-1sol-addvac/CSL13/Al/Al-58-d-4.19,/mnt/e/Onedrive/TiGB-Project/Data/Segregation-1sol-addvac/CSL13/Al/Al-58-d-4.19,CONTCAR,100,Ti99 Al1,2379.742335475211,3.3254949994373777,-761.42768005,-7.614276800500001,"{""ALGO"": ""Fast"", ""AMIX"": 0.01, ""BMIX"": 0.0001, ""EDIFF"": 0.0001, ""EDIFFG"": -0.02, ""ENCUT"": 450.0, ""GGA"": ""Pe"", ""IBRION"": 2, ""ISIF"": 2, ""ISMEAR"": 1, ""ISPIN"": 1, ""ISTART"": 0, ""KPAR"": 4, ""LORBIT"": 10, ""LPLANE"": false, ""LREAL"": ""Auto"", ""NCORE"": 4, ""NELM"": 120, ""NSIM"": 1, ""NSW"": 60, ""PREC"": ""Accurate"", ""SIGMA"": 0.2, ""SYSTEM"": ""Al-58-d-4.19""}",Al-58-d-4.19,450.0,1,1,0.2,Pe,"{""Ti"": 4.0, ""Al"": 3.0}",399.0,,Al
Segregation-1sol-addvac-CSL13-Al-Al-59-d-4.19,Segregation-1sol-addvac,Segregation-1sol-addvac/CSL13/Al/Al-59-d-4.19,/mnt/e/Onedrive/TiGB-Project/Data/Segregation-1sol-addvac/CSL13/Al/Al-59-d-4.19,CONTCAR,100,Ti99 Al1,2379.742335475211,3.3254949994373777,-761.51277425,-7.6151277425,"{""ALGO"": ""Fast"", ""AMIX"": 0.01, ""BMIX"": 0.0001, ""EDIFF"": 0.0001, ""EDIFFG"": -0.02, ""ENCUT"": 450.0, ""GGA"": ""Pe"", ""IBRION"": 2, ""ISIF"": 2, ""ISMEAR"": 1, ""ISPIN"": 1, ""ISTART"": 0, ""KPAR"": 4, ""LORBIT"": 10, ""LPLANE"": false, ""LREAL"": ""Auto"", ""NCORE"": 4, ""NELM"": 120, ""NSIM"": 1, ""NSW"": 60, ""PREC"": ""Accurate"", ""SIGMA"": 0.2, ""SYSTEM"": ""Al-59-d-4.19""}",Al-59-d-4.19,450.0,1,1,0.2,Pe,"{""Ti"": 4.0, ""Al"": 3.0}",399.0,,Al
Segregation-1sol-addvac-CSL13-V-V-49-d-0.01,Segregation-1sol-addvac,Segregation-1sol-addvac/CSL13/V/V-49-d-0.01,/mnt/e/Onedrive/TiGB-Project/Data/Segregation-1sol-addvac/CSL13/V/V-49-d-0.01,CONTCAR,100,Ti99 V1,2379.742335475211,3.342213806091952,-765.52614641,-7.6552614641000005,"{""ALGO"": ""Fast"", ""AMIX"": 0.01, ""BMIX"": 0.0001, ""EDIFF"": 0.0001, ""EDIFFG"": -0.02, ""ENCUT"": 450.0, ""GGA"": ""Pe"", ""IBRION"": 2, ""ISIF"": 2, ""ISMEAR"": 1, ""ISPIN"": 1, ""ISTART"": 0, ""KPAR"": 4, ""LORBIT"": 10, ""LPLANE"": false, ""LREAL"": ""Auto"", ""NCORE"": 4, ""NELM"": 120, ""NSIM"": 1, ""NSW"": 60, ""PREC"": ""Accurate"", ""SIGMA"": 0.2, ""SYSTEM"": ""V-49-d-0.01""}",V-49-d-0.01,450.0,1,1,0.2,Pe,"{""Ti"": 4.0, ""V"": 5.0}",401.0,,V
Segregation-1sol-addvac-CSL13-V-V-51-d-0.00,Segregation-1sol-addvac,Segregation-1sol-addvac/CSL13/V/V-51-d-0.00,/mnt/e/Onedrive/TiGB-Project/Data/Segregation-1sol-addvac/CSL13/V/V-51-d-0.00,CONTCAR,100,Ti99 V1,2379.742335475211,3.342213806091952,-765.27977974,-7.6527977974,"{""ALGO"": ""Fast"", ""AMIX"": 0.01, ""BMIX"": 0.0001, ""EDIFF"": 0.0001, ""EDIFFG"": -0.02, ""ENCUT"": 450.0, ""GGA"": ""Pe"", ""IBRION"": 2, ""ISIF"": 2, ""ISMEAR"": 1, ""ISPIN"": 1, ""ISTART"": 0, ""KPAR"": 4, ""LORBIT"": 10, ""LPLANE"": false, ""LREAL"": ""Auto"", ""NCORE"": 4, ""NELM"": 120, ""NSIM"": 1, ""NSW"": 60, ""PREC"": ""Accurate"", ""SIGMA"": 0.2, ""SYSTEM"": ""V-51-d-0.00""}",V-51-d-0.00,450.0,1,1,0.2,Pe,"{""Ti"": 4.0, ""V"": 5.0}",401.0,,V
Segregation-1sol-addvac-CSL13-V-V-52-d-1.39,Segregation-1sol-addvac,Segregation-1sol-addvac/CSL13/V/V-52-d-1.39,/mnt/e/Onedrive/TiGB-Project/Data/Segregation-1sol-addvac/CSL13/V/V-52-d-1.39,CONTCAR,100,Ti99 V1,2379.742335475211,3.342213806091952,-765.45953858,-7.6545953857999995,"{""ALGO"": ""Normal"", ""AMIX"": 0.01, ""BMIX"": 0.0001, ""EDIFF"": 0.0001, ""EDIFFG"": -0.02, ""ENCUT"": 450.0, ""GGA"": ""Pe"", ""IBRION"": 2, ""ISIF"": 2, ""ISMEAR"": 1, ""ISPIN"": 1, ""ISTART"": 0, ""KPAR"": 4, ""LORBIT"": 10, ""LPLANE"": false, ""LREAL"": ""Auto"", ""NCORE"": 4, ""NELM"": 120, ""NSIM"": 1, ""NSW"": 60, ""PREC"": ""Accurate"", ""SIGMA"": 0.2, ""SYSTEM"": ""V-52-d-1.39""}",V-52-d-1.39,450.0,1,1,0.2,Pe,"{""Ti"": 4.0, ""V"": 5.0}",401.0,,V
Segregation-1sol-addvac-CSL13-V-V-53-d-1.39,Segregation-1sol-addvac,Segregation-1sol-addvac/CSL13/V/V-53-d-1.39,/mnt/e/Onedrive/TiGB-Project/Data/Segregation-1sol-addvac/CSL13/V/V-53-d-1.39,CONTCAR,100,Ti99 V1,2379.742335475211,3.342213806091952,-765.46205482,-7.6546205482000005,"{""ALGO"": ""Fast"", ""AMIX"": 0.01, ""BMIX"": 0.0001, ""EDIFF"": 0.0001, ""EDIFFG"": -0.02, ""ENCUT"": 450.0, ""GGA"": ""Pe"", ""IBRION"": 2, ""ISIF"": 2, ""ISMEAR"": 1, ""ISPIN"": 1, ""ISTART"": 0, ""KPAR"": 4, ""LORBIT"": 10, ""LPLANE"": false, ""LREAL"": ""Auto"", ""NCORE"": 4, ""NELM"": 120, ""NSIM"": 1, ""NSW"": 60, ""PREC"": ""Accurate"", ""SIGMA"": 0.2, ""SYSTEM"": ""V-53-d-1.39""}",V-53-d-1.39,450.0,1,1,0.2,Pe,"{""Ti"": 4.0, ""V"": 5.0}",401.0,,V
Segregation-1sol-addvac-CSL13-V-V-55-d-2.65,Segregation-1sol-addvac,Segregation-1sol-addvac/CSL13/V/V-55-d-2.65,/mnt/e/Onedrive/TiGB-Project/Data/Segregation-1sol-addvac/CSL13/V/V-55-d-2.65,CONTCAR,100,Ti99 V1,2379.742335475211,3.342213806091952,-765.518003,-7.65518003,"{""ALGO"": ""Fast"", ""AMIX"": 0.01, ""BMIX"": 0.0001, ""EDIFF"": 0.0001, ""EDIFFG"": -0.02, ""ENCUT"": 450.0, ""GGA"": ""Pe"", ""IBRION"": 2, ""ISIF"": 2, ""ISMEAR"": 1, ""ISPIN"": 1, ""ISTART"": 0, ""KPAR"": 4, ""LORBIT"": 10, ""LPLANE"": false, ""LREAL"": ""Auto"", ""NCORE"": 4, ""NELM"": 120, ""NSIM"": 1, ""NSW"": 60, ""PREC"": ""Accurate"", ""SIGMA"": 0.2, ""SYSTEM"": ""V-55-d-2.65""}",V-55-d-2.65,450.0,1,1,0.2,Pe,"{""Ti"": 4.0, ""V"": 5.0}",401.0,,V
Segregation-1sol-addvac-CSL13-V-V-56-d-2.88,Segregation-1sol-addvac,Segregation-1sol-addvac/CSL13/V/V-56-d-2.88,/mnt/e/Onedrive/TiGB-Project/Data/Segregation-1sol-addvac/CSL13/V/V-56-d-2.88,CONTCAR,100,Ti99 V1,2379.742335475211,3.342213806091952,-765.22511659,-7.6522511659,"{""ALGO"": ""Fast"", ""AMIX"": 0.01, ""BMIX"": 0.0001, ""EDIFF"": 0.0001, ""EDIFFG"": -0.02, ""ENCUT"": 450.0, ""GGA"": ""Pe"", ""IBRION"": 2, ""ISIF"": 2, ""ISMEAR"": 1, ""ISPIN"": 1, ""ISTART"": 0, ""KPAR"": 4, ""LORBIT"": 10, ""LPLANE"": false, ""LREAL"": ""Auto"", ""NCORE"": 4, ""NELM"": 120, ""NSIM"": 1, ""NSW"": 60, ""PREC"": ""Accurate"", ""SIGMA"": 0.2, ""SYSTEM"": ""V-56-d-2.88""}",V-56-d-2.88,450.0,1,1,0.2,Pe,"{""Ti"": 4.0, ""V"": 5.0}",401.0,,V
Segregation-1sol-addvac-CSL13-V-V-57-d-2.88,Segregation-1sol-addvac,Segregation-1sol-addvac/CSL13/V/V-57-d-2.88,/mnt/e/Onedrive/TiGB-Project/Data/Segregation-1sol-addvac/CSL13/V/V-57-d-2.88,CONTCAR,100,Ti99 V1,2379.742335475211,3.342213806091952,-765.22296734,-7.6522296734,"{""ALGO"": ""Fast"", ""AMIX"": 0.01, ""BMIX"": 0.0001, ""EDIFF"": 0.0001, ""EDIFFG"": -0.02, ""ENCUT"": 450.0, ""GGA"": ""Pe"", ""IBRION"": 2, ""ISIF"": 2, ""ISMEAR"": 1, ""ISPIN"": 1, ""ISTART"": 0, ""KPAR"": 4, ""LORBIT"": 10, ""LPLANE"": false, ""LREAL"": ""Auto"", ""NCORE"": 4, ""NELM"": 120, ""NSIM"": 1, ""NSW"": 60, ""PREC"": ""Accurate"", ""SIGMA"": 0.2, ""SYSTEM"": ""V-57-d-2.88""}",V-57-d-2.88,450.0,1,1,0.2,Pe,"{""Ti"": 4.0, ""V"": 5.0}",401.0,"vasprun:no element found: line 7597, column 0",V
Segregation-1sol-addvac-CSL13-V-V-59-d-4.19,Segregation-1sol-addvac,Segregation-1sol-addvac/CSL13/V/V-59-d-4.19,/mnt/e/Onedrive/TiGB-Project/Data/Segregation-1sol-addvac/CSL13/V/V-59-d-4.19,CONTCAR,100,Ti99 V1,2379.742335475211,3.342213806091952,-765.37229002,-7.6537229002,"{""ALGO"": ""Fast"", ""AMIX"": 0.01, ""BMIX"": 0.0001, ""EDIFF"": 0.0001, ""EDIFFG"": -0.02, ""ENCUT"": 450.0, ""GGA"": ""Pe"", ""IBRION"": 2, ""ISIF"": 2, ""ISMEAR"": 1, ""ISPIN"": 1, ""ISTART"": 0, ""KPAR"": 4, ""LORBIT"": 10, ""LPLANE"": false, ""LREAL"": ""Auto"", ""NCORE"": 4, ""NELM"": 120, ""NSIM"": 1, ""NSW"": 60, ""PREC"": ""Accurate"", ""SIGMA"": 0.2, ""SYSTEM"": ""V-59-d-4.19""}",V-59-d-4.19,450.0,1,1,0.2,Pe,"{""Ti"": 4.0, ""V"": 5.0}",401.0,,V
Segregation-1sol-addvac-CSL7-Al-Al-24-d-0.00,Segregation-1sol-addvac,Segregation-1sol-addvac/CSL7/Al/Al-24-d-0.00,/mnt/e/Onedrive/TiGB-Project/Data/Segregation-1sol-addvac/CSL7/Al/Al-24-d-0.00,CONTCAR,52,Ti51 Al1,1485.2379288157726,2.759517531621646,-389.85348665,-7.4971824355769225,"{""ALGO"": ""Fast"", ""AMIX"": 0.01, ""BMIX"": 0.0001, ""EDIFF"": 0.0001, ""EDIFFG"": -0.02, ""ENCUT"": 450.0, ""GGA"": ""Pe"", ""IBRION"": 2, ""ISIF"": 2, ""ISMEAR"": 1, ""ISPIN"": 1, ""ISTART"": 0, ""KPAR"": 4, ""LORBIT"": 10, ""LPLANE"": false, ""LREAL"": ""Auto"", ""NCORE"": 4, ""NELM"": 120, ""NSIM"": 1, ""NSW"": 60, ""PREC"": ""Accurate"", ""SIGMA"": 0.2, ""SYSTEM"": ""Al-24-d-0.00""}",Al-24-d-0.00,450.0,1,1,0.2,Pe,"{""Ti"": 4.0, ""Al"": 3.0}",207.0,,Al