job_name,top_level,relpath,path,structure_file,num_atoms,formula,volume,density,energy_eV,energy_per_atom_eV,incar,incar_system,incar_encut,incar_ispin,incar_ismear,incar_sigma,incar_gga,potcar_nelectrons_map,potcar_total_nelectrons,parse_errors,solute
BondOrder-VacuumGB-T1m-V-V-38-d-2.03,BondOrder-VacuumGB,BondOrder-VacuumGB/T1m/V/V-38-d-2.03,/mnt/e/Onedrive/TiGB-Project/Data/BondOrder-VacuumGB/T1m/V/V-38-d-2.03,CONTCAR,64,Ti63 V1,1756.1076583245747,2.8996780547003476,-485.95964485,-7.59311945078125,"{""ALGO"": ""Fast"", ""AMIX"": 0.01, ""BMIX"": 0.0001, ""EDIFF"": 1e-05, ""EDIFFG"": -0.01, ""ENCUT"": 450.0, ""GGA"": ""Pe"", ""IBRION"": 2, ""ISIF"": 2, ""ISMEAR"": 1, ""ISPIN"": 1, ""ISTART"": 0, ""KPAR"": 1, ""LAECHG"": true, ""LCHARG"": true, ""LORBIT"": 10, ""LPLANE"": false, ""LREAL"": ""Auto"", ""NCORE"": 4, ""NELM"": 300, ""NSIM"": 1, ""NSW"": 2, ""PREC"": ""Accurate"", ""SIGMA"": 0.2, ""SYSTEM"": ""V-38-d-2.03""}",V-38-d-2.03,450.0,1,1,0.2,Pe,"{""Ti"": 4.0, ""V"": 5.0}",257.0,,V
BondOrder-VacuumGB-T1m-V-V-39-d-2.03,BondOrder-VacuumGB,BondOrder-VacuumGB/T1m/V/V-39-d-2.03,/mnt/e/Onedrive/TiGB-Project/Data/BondOrder-VacuumGB/T1m/V/V-39-d-2.03,CONTCAR,64,Ti63 V1,1756.1076583245747,2.8996780547003476,-485.97645603,-7.59338212546875,"{""ALGO"": ""Fast"", ""AMIX"": 0.01, ""BMIX"": 0.0001, ""EDIFF"": 1e-05, ""EDIFFG"": -0.01, ""ENCUT"": 450.0, ""GGA"": ""Pe"", ""IBRION"": 2, ""ISIF"": 2, ""ISMEAR"": 1, ""ISPIN"": 1, ""ISTART"": 0, ""KPAR"": 1, ""LAECHG"": true, ""LCHARG"": true, ""LORBIT"": 10, ""LPLANE"": false, ""LREAL"": ""Auto"", ""NCORE"": 4, ""NELM"": 300, ""NSIM"": 1, ""NSW"": 2, ""PREC"": ""Accurate"", ""SIGMA"": 0.2, ""SYSTEM"": ""V-39-d-2.03""}",V-39-d-2.03,450.0,1,1,0.2,Pe,"{""Ti"": 4.0, ""V"": 5.0}",257.0,,V
BondOrder-VacuumGB-T1m-V-V-40-d-3.20,BondOrder-VacuumGB,BondOrder-VacuumGB/T1m/V/V-40-d-3.20,/mnt/e/Onedrive/TiGB-Project/Data/BondOrder-VacuumGB/T1m/V/V-40-d-3.20,CONTCAR,64,Ti63 V1,1756.1076583245747,2.8996780547003476,-484.94565224,-7.57727581625,"{""ALGO"": ""Fast"", ""AMIX"": 0.01, ""BMIX"": 0.0001, ""EDIFF"": 1e-05, ""EDIFFG"": -0.01, ""ENCUT"": 450.0, ""GGA"": ""Pe"", ""IBRION"": 2, ""ISIF"": 2, ""ISMEAR"": 1, ""ISPIN"": 1, ""ISTART"": 0, ""KPAR"": 1, ""LAECHG"": true, ""LCHARG"": true, ""LORBIT"": 10, ""LPLANE"": false, ""LREAL"": ""Auto"", ""NCORE"": 4, ""NELM"": 300, ""NSIM"": 1, ""NSW"": 2, ""PREC"": ""Accurate"", ""SIGMA"": 0.2, ""SYSTEM"": ""V-40-d-3.20""}",V-40-d-3.20,450.0,1,1,0.2,Pe,"{""Ti"": 4.0, ""V"": 5.0}",257.0,,V
BondOrder-VacuumGB-T1m-V-V-41-d-3.20,BondOrder-VacuumGB,BondOrder-VacuumGB/T1m/V/V-41-d-3.20,/mnt/e/Onedrive/TiGB-Project/Data/BondOrder-VacuumGB/T1m/V/V-41-d-3.20,CONTCAR,64,Ti63 V1,1756.1076583245747,2.8996780547003476,-484.9486203,-7.5773221921875,"{""ALGO"": ""Fast"", ""AMIX"": 0.01, ""BMIX"": 0.0001, ""EDIFF"": 1e-05, ""EDIFFG"": -0.01, ""ENCUT"": 450.0, ""GGA"": ""Pe"", ""IBRION"": 2, ""ISIF"": 2, ""ISMEAR"": 1, ""ISPIN"": 1, ""ISTART"": 0, ""KPAR"": 1, ""LAECHG"": true, ""LCHARG"": true, ""LORBIT"": 10, ""LPLANE"": false, ""LREAL"": ""Auto"", ""NCORE"": 4, ""NELM"": 300, ""NSIM"": 1, ""NSW"": 2, ""PREC"": ""Accurate"", ""SIGMA"": 0.2, ""SYSTEM"": ""V-41-d-3.20""}",V-41-d-3.20,450.0,1,1,0.2,Pe,"{""Ti"": 4.0, ""V"": 5.0}",257.0,,V
BondOrder-VacuumGB-T1m-V-V-42-d-3.62,BondOrder-VacuumGB,BondOrder-VacuumGB/T1m/V/V-42-d-3.62,/mnt/e/Onedrive/TiGB-Project/Data/BondOrder-VacuumGB/T1m/V/V-42-d-3.62,CONTCAR,64,Ti63 V1,1756.1076583245747,2.8996780547003476,-485.76986851,-7.59015419546875,"{""ALGO"": ""Fast"", ""AMIX"": 0.01, ""BMIX"": 0.0001, ""EDIFF"": 1e-05, ""EDIFFG"": -0.01, ""ENCUT"": 450.0, ""GGA"": ""Pe"", ""IBRION"": 2, ""ISIF"": 2, ""ISMEAR"": 1, ""ISPIN"": 1, ""ISTART"": 0, ""KPAR"": 1, ""LAECHG"": true, ""LCHARG"": true, ""LORBIT"": 10, ""LPLANE"": false, ""LREAL"": ""Auto"", ""NCORE"": 4, ""NELM"": 300, ""NSIM"": 1, ""NSW"": 2, ""PREC"": ""Accurate"", ""SIGMA"": 0.2, ""SYSTEM"": ""V-42-d-3.62""}",V-42-d-3.62,450.0,1,1,0.2,Pe,"{""Ti"": 4.0, ""V"": 5.0}",257.0,,V
BondOrder-VacuumGB-T1m-V-V-43-d-3.62,BondOrder-VacuumGB,BondOrder-VacuumGB/T1m/V/V-43-d-3.62,/mnt/e/Onedrive/TiGB-Project/Data/BondOrder-VacuumGB/T1m/V/V-43-d-3.62,CONTCAR,64,Ti63 V1,1756.1076583245747,2.8996780547003476,-485.77560539,-7.59024383421875,"{""ALGO"": ""Fast"", ""AMIX"": 0.01, ""BMIX"": 0.0001, ""EDIFF"": 1e-05, ""EDIFFG"": -0.01, ""ENCUT"": 450.0, ""GGA"": ""Pe"", ""IBRION"": 2, ""ISIF"": 2, ""ISMEAR"": 1, ""ISPIN"": 1, ""ISTART"": 0, ""KPAR"": 1, ""LAECHG"": true, ""LCHARG"": true, ""LORBIT"": 10, ""LPLANE"": false, ""LREAL"": ""Auto"", ""NCORE"": 4, ""NELM"": 300, ""NSIM"": 1, ""NSW"": 2, ""PREC"": ""Accurate"", ""SIGMA"": 0.2, ""SYSTEM"": ""V-43-d-3.62""}",V-43-d-3.62,450.0,1,1,0.2,Pe,"{""Ti"": 4.0, ""V"": 5.0}",257.0,,V
BondOrder-VacuumGB-T1m-V-V-44-d-4.84,BondOrder-VacuumGB,BondOrder-VacuumGB/T1m/V/V-44-d-4.84,/mnt/e/Onedrive/TiGB-Project/Data/BondOrder-VacuumGB/T1m/V/V-44-d-4.84,CONTCAR,64,Ti63 V1,1756.1076583245747,2.8996780547003476,-485.82455653,-7.59100869578125,"{""ALGO"": ""Fast"", ""AMIX"": 0.01, ""BMIX"": 0.0001, ""EDIFF"": 1e-05, ""EDIFFG"": -0.01, ""ENCUT"": 450.0, ""GGA"": ""Pe"", ""IBRION"": 2, ""ISIF"": 2, ""ISMEAR"": 1, ""ISPIN"": 1, ""ISTART"": 0, ""KPAR"": 1, ""LAECHG"": true, ""LCHARG"": true, ""LORBIT"": 10, ""LPLANE"": false, ""LREAL"": ""Auto"", ""NCORE"": 4, ""NELM"": 300, ""NSIM"": 1, ""NSW"": 2, ""PREC"": ""Accurate"", ""SIGMA"": 0.2, ""SYSTEM"": ""V-44-d-4.84""}",V-44-d-4.84,450.0,1,1,0.2,Pe,"{""Ti"": 4.0, ""V"": 5.0}",257.0,,V
BondOrder-VacuumGB-T1m-V-V-45-d-4.84,BondOrder-VacuumGB,BondOrder-VacuumGB/T1m/V/V-45-d-4.84,/mnt/e/Onedrive/TiGB-Project/Data/BondOrder-VacuumGB/T1m/V/V-45-d-4.84,CONTCAR,64,Ti63 V1,1756.1076583245747,2.8996780547003476,-485.83831601,-7.59122368765625,"{""ALGO"": ""Fast"", ""AMIX"": 0.01, ""BMIX"": 0.0001, ""EDIFF"": 1e-05, ""EDIFFG"": -0.01, ""ENCUT"": 450.0, ""GGA"": ""Pe"", ""IBRION"": 2, ""ISIF"": 2, ""ISMEAR"": 1, ""ISPIN"": 1, ""ISTART"": 0, ""KPAR"": 1, ""LAECHG"": true, ""LCHARG"": true, ""LORBIT"": 10, ""LPLANE"": false, ""LREAL"": ""Auto"", ""NCORE"": 4, ""NELM"": 300, ""NSIM"": 1, ""NSW"": 2, ""PREC"": ""Accurate"", ""SIGMA"": 0.2, ""SYSTEM"": ""V-45-d-4.84""}",V-45-d-4.84,450.0,1,1,0.2,Pe,"{""Ti"": 4.0, ""V"": 5.0}",257.0,,V
BondOrder-VacuumGB-T1m-V-V-46-d-5.43,BondOrder-VacuumGB,BondOrder-VacuumGB/T1m/V/V-46-d-5.43,/mnt/e/Onedrive/TiGB-Project/Data/BondOrder-VacuumGB/T1m/V/V-46-d-5.43,CONTCAR,64,Ti63 V1,1756.1076583245747,2.8996780547003476,-484.81360763,-7.57521261921875,"{""ALGO"": ""Fast"", ""AMIX"": 0.01, ""BMIX"": 0.0001, ""EDIFF"": 1e-05, ""EDIFFG"": -0.01, ""ENCUT"": 450.0, ""GGA"": ""Pe"", ""IBRION"": 2, ""ISIF"": 2, ""ISMEAR"": 1, ""ISPIN"": 1, ""ISTART"": 0, ""KPAR"": 1, ""LAECHG"": true, ""LCHARG"": true, ""LORBIT"": 10, ""LPLANE"": false, ""LREAL"": ""Auto"", ""NCORE"": 4, ""NELM"": 300, ""NSIM"": 1, ""NSW"": 2, ""PREC"": ""Accurate"", ""SIGMA"": 0.2, ""SYSTEM"": ""V-46-d-5.43""}",V-46-d-5.43,450.0,1,1,0.2,Pe,"{""Ti"": 4.0, ""V"": 5.0}",257.0,,V
BondOrder-VacuumGB-T1m-V-V-47-d-5.43,BondOrder-VacuumGB,BondOrder-VacuumGB/T1m/V/V-47-d-5.43,/mnt/e/Onedrive/TiGB-Project/Data/BondOrder-VacuumGB/T1m/V/V-47-d-5.43,CONTCAR,64,Ti63 V1,1756.1076583245747,2.8996780547003476,-485.81322534,-7.5908316459375,"{""ALGO"": ""Fast"", ""AMIX"": 0.01, ""BMIX"": 0.0001, ""EDIFF"": 1e-05, ""EDIFFG"": -0.01, ""ENCUT"": 450.0, ""GGA"": ""Pe"", ""IBRION"": 2, ""ISIF"": 2, ""ISMEAR"": 1, ""ISPIN"": 1, ""ISTART"": 0, ""KPAR"": 1, ""LAECHG"": true, ""LCHARG"": true, ""LORBIT"": 10, ""LPLANE"": false, ""LREAL"": ""Auto"", ""NCORE"": 4, ""NELM"": 300, ""NSIM"": 1, ""NSW"": 2, ""PREC"": ""Accurate"", ""SIGMA"": 0.2, ""SYSTEM"": ""V-47-d-5.43""}",V-47-d-5.43,450.0,1,1,0.2,Pe,"{""Ti"": 4.0, ""V"": 5.0}",257.0,,V
BondOrder-VacuumGB-T1m-V-V-48-d-6.60,BondOrder-VacuumGB,BondOrder-VacuumGB/T1m/V/V-48-d-6.60,/mnt/e/Onedrive/TiGB-Project/Data/BondOrder-VacuumGB/T1m/V/V-48-d-6.60,CONTCAR,64,Ti63 V1,1756.1076583245747,2.8996780547003476,-485.82330394,-7.5909891240625,"{""ALGO"": ""Fast"", ""AMIX"": 0.01, ""BMIX"": 0.0001, ""EDIFF"": 1e-05, ""EDIFFG"": -0.01, ""ENCUT"": 450.0, ""GGA"": ""Pe"", ""IBRION"": 2, ""ISIF"": 2, ""ISMEAR"": 1, ""ISPIN"": 1, ""ISTART"": 0, ""KPAR"": 1, ""LAECHG"": true, ""LCHARG"": true, ""LORBIT"": 10, ""LPLANE"": false, ""LREAL"": ""Auto"", ""NCORE"": 4, ""NELM"": 300, ""NSIM"": 1, ""NSW"": 2, ""PREC"": ""Accurate"", ""SIGMA"": 0.2, ""SYSTEM"": ""V-48-d-6.60""}",V-48-d-6.60,450.0,1,1,0.2,Pe,"{""Ti"": 4.0, ""V"": 5.0}",257.0,,V
BondOrder-VacuumGB-T1m-V-V-49-d-6.60,BondOrder-VacuumGB,BondOrder-VacuumGB/T1m/V/V-49-d-6.60,/mnt/e/Onedrive/TiGB-Project/Data/BondOrder-VacuumGB/T1m/V/V-49-d-6.60,CONTCAR,64,Ti63 V1,1756.1076583245747,2.8996780547003476,-485.81566145,-7.59086971015625,"{""ALGO"": ""Fast"", ""AMIX"": 0.01, ""BMIX"": 0.0001, ""EDIFF"": 1e-05, ""EDIFFG"": -0.01, ""ENCUT"": 450.0, ""GGA"": ""Pe"", ""IBRION"": 2, ""ISIF"": 2, ""ISMEAR"": 1, ""ISPIN"": 1, ""ISTART"": 0, ""KPAR"": 1, ""LAECHG"": true, ""LCHARG"": true, ""LORBIT"": 10, ""LPLANE"": false, ""LREAL"": ""Auto"", ""NCORE"": 4, ""NELM"": 300, ""NSIM"": 1, ""NSW"": 2, ""PREC"": ""Accurate"", ""SIGMA"": 0.2, ""SYSTEM"": ""V-49-d-6.60""}",V-49-d-6.60,450.0,1,1,0.2,Pe,"{""Ti"": 4.0, ""V"": 5.0}",257.0,,V
BondOrder-VacuumGB-T2-Al-Al-32-d-0.00,BondOrder-VacuumGB,BondOrder-VacuumGB/T2/Al/Al-32-d-0.00,/mnt/e/Onedrive/TiGB-Project/Data/BondOrder-VacuumGB/T2/Al/Al-32-d-0.00,CONTCAR,64,Ti63 Al1,1898.3108162424583,2.6615032392541385,-477.36431317,-7.45881739328125,"{""ALGO"": ""Fast"", ""AMIX"": 0.01, ""BMIX"": 0.0001, ""EDIFF"": 1e-05, ""EDIFFG"": -0.01, ""ENCUT"": 450.0, ""GGA"": ""Pe"", ""IBRION"": 2, ""ISIF"": 2, ""ISMEAR"": 1, ""ISPIN"": 1, ""ISTART"": 0, ""KPAR"": 1, ""LAECHG"": true, ""LCHARG"": true, ""LORBIT"": 10, ""LPLANE"": false, ""LREAL"": ""Auto"", ""NCORE"": 4, ""NELM"": 300, ""NSIM"": 1, ""NSW"": 2, ""PREC"": ""Accurate"", ""SIGMA"": 0.2, ""SYSTEM"": ""Al-32-d-0.00""}",Al-32-d-0.00,450.0,1,1,0.2,Pe,"{""Ti"": 4.0, ""Al"": 3.0}",255.0,,Al
BondOrder-VacuumGB-T2-Al-Al-33-d-0.00,BondOrder-VacuumGB,BondOrder-VacuumGB/T2/Al/Al-33-d-0.00,/mnt/e/Onedrive/TiGB-Project/Data/BondOrder-VacuumGB/T2/Al/Al-33-d-0.00,CONTCAR,64,Ti63 Al1,1898.3108162424583,2.6615032392541385,-477.37045394,-7.4589133428125,"{""ALGO"": ""Fast"", ""AMIX"": 0.01, ""BMIX"": 0.0001, ""EDIFF"": 1e-05, ""EDIFFG"": -0.01, ""ENCUT"": 450.0, ""GGA"": ""Pe"", ""IBRION"": 2, ""ISIF"": 2, ""ISMEAR"": 1, ""ISPIN"": 1, ""ISTART"": 0, ""KPAR"": 1, ""LAECHG"": true, ""LCHARG"": true, ""LORBIT"": 10, ""LPLANE"": false, ""LREAL"": ""Auto"", ""NCORE"": 4, ""NELM"": 300, ""NSIM"": 1, ""NSW"": 2, ""PREC"": ""Accurate"", ""SIGMA"": 0.2, ""SYSTEM"": ""Al-33-d-0.00""}",Al-33-d-0.00,450.0,1,1,0.2,Pe,"{""Ti"": 4.0, ""Al"": 3.0}",255.0,,Al
BondOrder-VacuumGB-T2-Al-Al-34-d-0.63,BondOrder-VacuumGB,BondOrder-VacuumGB/T2/Al/Al-34-d-0.63,/mnt/e/Onedrive/TiGB-Project/Data/BondOrder-VacuumGB/T2/Al/Al-34-d-0.63,CONTCAR,64,Ti63 Al1,1898.3108162424583,2.6615032392541385,-477.37876144,-7.4590431475,"{""ALGO"": ""Fast"", ""AMIX"": 0.01, ""BMIX"": 0.0001, ""EDIFF"": 1e-05, ""EDIFFG"": -0.01, ""ENCUT"": 450.0, ""GGA"": ""Pe"", ""IBRION"": 2, ""ISIF"": 2, ""ISMEAR"": 1, ""ISPIN"": 1, ""ISTART"": 0, ""KPAR"": 1, ""LAECHG"": true, ""LCHARG"": true, ""LORBIT"": 10, ""LPLANE"": false, ""LREAL"": ""Auto"", ""NCORE"": 4, ""NELM"": 300, ""NSIM"": 1, ""NSW"": 2, ""PREC"": ""Accurate"", ""SIGMA"": 0.2, ""SYSTEM"": ""Al-34-d-0.63""}",Al-34-d-0.63,450.0,1,1,0.2,Pe,"{""Ti"": 4.0, ""Al"": 3.0}",255.0,,Al
BondOrder-VacuumGB-T2-Al-Al-35-d-0.63,BondOrder-VacuumGB,BondOrder-VacuumGB/T2/Al/Al-35-d-0.63,/mnt/e/Onedrive/TiGB-Project/Data/BondOrder-VacuumGB/T2/Al/Al-35-d-0.63,CONTCAR,64,Ti63 Al1,1898.3108162424583,2.6615032392541385,-477.48851125,-7.46075798828125,"{""ALGO"": ""Fast"", ""AMIX"": 0.01, ""BMIX"": 0.0001, ""EDIFF"": 1e-05, ""EDIFFG"": -0.01, ""ENCUT"": 450.0, ""GGA"": ""Pe"", ""IBRION"": 2, ""ISIF"": 2, ""ISMEAR"": 1, ""ISPIN"": 1, ""ISTART"": 0, ""KPAR"": 1, ""LAECHG"": true, ""LCHARG"": true, ""LORBIT"": 10, ""LPLANE"": false, ""LREAL"": ""Auto"", ""NCORE"": 4, ""NELM"": 300, ""NSIM"": 1, ""NSW"": 2, ""PREC"": ""Accurate"", ""SIGMA"": 0.2, ""SYSTEM"": ""Al-35-d-0.63""}",Al-35-d-0.63,450.0,1,1,0.2,Pe,"{""Ti"": 4.0, ""Al"": 3.0}",255.0,,Al
BondOrder-VacuumGB-T2-Al-Al-36-d-1.39,BondOrder-VacuumGB,BondOrder-VacuumGB/T2/Al/Al-36-d-1.39,/mnt/e/Onedrive/TiGB-Project/Data/BondOrder-VacuumGB/T2/Al/Al-36-d-1.39,CONTCAR,64,Ti63 Al1,1898.3108162424583,2.6615032392541385,-477.48694832,-7.4607335675,"{""ALGO"": ""Fast"", ""AMIX"": 0.01, ""BMIX"": 0.0001, ""EDIFF"": 1e-05, ""EDIFFG"": -0.01, ""ENCUT"": 450.0, ""GGA"": ""Pe"", ""IBRION"": 2, ""ISIF"": 2, ""ISMEAR"": 1, ""ISPIN"": 1, ""ISTART"": 0, ""KPAR"": 1, ""LAECHG"": true, ""LCHARG"": true, ""LORBIT"": 10, ""LPLANE"": false, ""LREAL"": ""Auto"", ""NCORE"": 4, ""NELM"": 300, ""NSIM"": 1, ""NSW"": 2, ""PREC"": ""Accurate"", ""SIGMA"": 0.2, ""SYSTEM"": ""Al-36-d-1.39""}",Al-36-d-1.39,450.0,1,1,0.2,Pe,"{""Ti"": 4.0, ""Al"": 3.0}",255.0,,Al
BondOrder-VacuumGB-T2-Al-Al-37-d-1.39,BondOrder-VacuumGB,BondOrder-VacuumGB/T2/Al/Al-37-d-1.39,/mnt/e/Onedrive/TiGB-Project/Data/BondOrder-VacuumGB/T2/Al/Al-37-d-1.39,CONTCAR,64,Ti63 Al1,1898.3108162424583,2.6615032392541385,-477.48146341,-7.46064786578125,"{""ALGO"": ""Fast"", ""AMIX"": 0.01, ""BMIX"": 0.0001, ""EDIFF"": 1e-05, ""EDIFFG"": -0.01, ""ENCUT"": 450.0, ""GGA"": ""Pe"", ""IBRION"": 2, ""ISIF"": 2, ""ISMEAR"": 1, ""ISPIN"": 1, ""ISTART"": 0, ""KPAR"": 1, ""LAECHG"": true, ""LCHARG"": true, ""LORBIT"": 10, ""LPLANE"": false, ""LREAL"": ""Auto"", ""NCORE"": 4, ""NELM"": 300, ""NSIM"": 1, ""NSW"": 2, ""PREC"": ""Accurate"", ""SIGMA"": 0.2, ""SYSTEM"": ""Al-37-d-1.39""}",Al-37-d-1.39,450.0,1,1,0.2,Pe,"{""Ti"": 4.0, ""Al"": 3.0}",255.0,,Al
BondOrder-VacuumGB-T2-Al-Al-38-d-2.12,BondOrder-VacuumGB,BondOrder-VacuumGB/T2/Al/Al-38-d-2.12,/mnt/e/Onedrive/TiGB-Project/Data/BondOrder-VacuumGB/T2/Al/Al-38-d-2.12,CONTCAR,64,Ti63 Al1,1898.3108162424583,2.6615032392541385,-477.71675882,-7.4643243565625,"{""ALGO"": ""Fast"", ""AMIX"": 0.01, ""BMIX"": 0.0001, ""EDIFF"": 1e-05, ""EDIFFG"": -0.01, ""ENCUT"": 450.0, ""GGA"": ""Pe"", ""IBRION"": 2, ""ISIF"": 2, ""ISMEAR"": 1, ""ISPIN"": 1, ""ISTART"": 0, ""KPAR"": 1, ""LAECHG"": true, ""LCHARG"": true, ""LORBIT"": 10, ""LPLANE"": false, ""LREAL"": ""Auto"", ""NCORE"": 4, ""NELM"": 300, ""NSIM"": 1, ""NSW"": 2, ""PREC"": ""Accurate"", ""SIGMA"": 0.2, ""SYSTEM"": ""Al-38-d-2.12""}",Al-38-d-2.12,450.0,1,1,0.2,Pe,"{""Ti"": 4.0, ""Al"": 3.0}",255.0,,Al
BondOrder-VacuumGB-T2-Al-Al-39-d-2.12,BondOrder-VacuumGB,BondOrder-VacuumGB/T2/Al/Al-39-d-2.12,/mnt/e/Onedrive/TiGB-Project/Data/BondOrder-VacuumGB/T2/Al/Al-39-d-2.12,CONTCAR,64,Ti63 Al1,1898.3108162424583,2.6615032392541385,-477.74522348,-7.464769116875,"{""ALGO"": ""Fast"", ""AMIX"": 0.01, ""BMIX"": 0.0001, ""EDIFF"": 1e-05, ""EDIFFG"": -0.01, ""ENCUT"": 450.0, ""GGA"": ""Pe"", ""IBRION"": 2, ""ISIF"": 2, ""ISMEAR"": 1, ""ISPIN"": 1, ""ISTART"": 0, ""KPAR"": 1, ""LAECHG"": true, ""LCHARG"": true, ""LORBIT"": 10, ""LPLANE"": false, ""LREAL"": ""Auto"", ""NCORE"": 4, ""NELM"": 300, ""NSIM"": 1, ""NSW"": 2, ""PREC"": ""Accurate"", ""SIGMA"": 0.2, ""SYSTEM"": ""Al-39-d-2.12""}",Al-39-d-2.12,450.0,1,1,0.2,Pe,"{""Ti"": 4.0, ""Al"": 3.0}",255.0,,Al
BondOrder-VacuumGB-T2-Al-Al-40-d-2.77,BondOrder-VacuumGB,BondOrder-VacuumGB/T2/Al/Al-40-d-2.77,/mnt/e/Onedrive/TiGB-Project/Data/BondOrder-VacuumGB/T2/Al/Al-40-d-2.77,CONTCAR,64,Ti63 Al1,1898.3108162424583,2.6615032392541385,-477.5619008,-7.4619047,"{""ALGO"": ""Fast"", ""AMIX"": 0.01, ""BMIX"": 0.0001, ""EDIFF"": 1e-05, ""EDIFFG"": -0.01, ""ENCUT"": 450.0, ""GGA"": ""Pe"", ""IBRION"": 2, ""ISIF"": 2, ""ISMEAR"": 1, ""ISPIN"": 1, ""ISTART"": 0, ""KPAR"": 1, ""LAECHG"": true, ""LCHARG"": true, ""LORBIT"": 10, ""LPLANE"": false, ""LREAL"": ""Auto"", ""NCORE"": 4, ""NELM"": 300, ""NSIM"": 1, ""NSW"": 2, ""PREC"": ""Accurate"", ""SIGMA"": 0.2, ""SYSTEM"": ""Al-40-d-2.77""}",Al-40-d-2.77,450.0,1,1,0.2,Pe,"{""Ti"": 4.0, ""Al"": 3.0}",255.0,,Al
BondOrder-VacuumGB-T2-Al-Al-41-d-2.77,BondOrder-VacuumGB,BondOrder-VacuumGB/T2/Al/Al-41-d-2.77,/mnt/e/Onedrive/TiGB-Project/Data/BondOrder-VacuumGB/T2/Al/Al-41-d-2.77,CONTCAR,64,Ti63 Al1,1898.3108162424583,2.6615032392541385,-477.62587624,-7.46290431625,"{""ALGO"": ""Fast"", ""AMIX"": 0.01, ""BMIX"": 0.0001, ""EDIFF"": 1e-05, ""EDIFFG"": -0.01, ""ENCUT"": 450.0, ""GGA"": ""Pe"", ""IBRION"": 2, ""ISIF"": 2, ""ISMEAR"": 1, ""ISPIN"": 1, ""ISTART"": 0, ""KPAR"": 1, ""LAECHG"": true, ""LCHARG"": true, ""LORBIT"": 10, ""LPLANE"": false, ""LREAL"": ""Auto"", ""NCORE"": 4, ""NELM"": 300, ""NSIM"": 1, ""NSW"": 2, ""PREC"": ""Accurate"", ""SIGMA"": 0.2, ""SYSTEM"": ""Al-41-d-2.77""}",Al-41-d-2.77,450.0,1,1,0.2,Pe,"{""Ti"": 4.0, ""Al"": 3.0}",255.0,,Al
BondOrder-VacuumGB-T2-Al-Al-42-d-3.50,BondOrder-VacuumGB,BondOrder-VacuumGB/T2/Al/Al-42-d-3.50,/mnt/e/Onedrive/TiGB-Project/Data/BondOrder-VacuumGB/T2/Al/Al-42-d-3.50,CONTCAR,64,Ti63 Al1,1898.3108162424583,2.6615032392541385,-477.8366504,-7.4661976625,"{""ALGO"": ""Fast"", ""AMIX"": 0.01, ""BMIX"": 0.0001, ""EDIFF"": 1e-05, ""EDIFFG"": -0.01, ""ENCUT"": 450.0, ""GGA"": ""Pe"", ""IBRION"": 2, ""ISIF"": 2, ""ISMEAR"": 1, ""ISPIN"": 1, ""ISTART"": 0, ""KPAR"": 1, ""LAECHG"": true, ""LCHARG"": true, ""LORBIT"": 10, ""LPLANE"": false, ""LREAL"": ""Auto"", ""NCORE"": 4, ""NELM"": 300, ""NSIM"": 1, ""NSW"": 2, ""PREC"": ""Accurate"", ""SIGMA"": 0.2, ""SYSTEM"": ""Al-42-d-3.50""}",Al-42-d-3.50,450.0,1,1,0.2,Pe,"{""Ti"": 4.0, ""Al"": 3.0}",255.0,,Al
BondOrder-VacuumGB-T2-Al-Al-43-d-3.50,BondOrder-VacuumGB,BondOrder-VacuumGB/T2/Al/Al-43-d-3.50,/mnt/e/Onedrive/TiGB-Project/Data/BondOrder-VacuumGB/T2/Al/Al-43-d-3.50,CONTCAR,64,Ti63 Al1,1898.3108162424583,2.6615032392541385,-477.93896239,-7.46779628734375,"{""ALGO"": ""Fast"", ""AMIX"": 0.01, ""BMIX"": 0.0001, ""EDIFF"": 1e-05, ""EDIFFG"": -0.01, ""ENCUT"": 450.0, ""GGA"": ""Pe"", ""IBRION"": 2, ""ISIF"": 2, ""ISMEAR"": 1, ""ISPIN"": 1, ""ISTART"": 0, ""KPAR"": 1, ""LAECHG"": true, ""LCHARG"": true, ""LORBIT"": 10, ""LPLANE"": false, ""LREAL"": ""Auto"", ""NCORE"": 4, ""NELM"": 300, ""NSIM"": 1, ""NSW"": 2, ""PREC"": ""Accurate"", ""SIGMA"": 0.2, ""SYSTEM"": ""Al-43-d-3.50""}",Al-43-d-3.50,450.0,1,1,0.2,Pe,"{""Ti"": 4.0, ""Al"": 3.0}",255.0,,Al
BondOrder-VacuumGB-T2-Al-Al-44-d-4.19,BondOrder-VacuumGB,BondOrder-VacuumGB/T2/Al/Al-44-d-4.19,/mnt/e/Onedrive/TiGB-Project/Data/BondOrder-VacuumGB/T2/Al/Al-44-d-4.19,CONTCAR,64,Ti63 Al1,1898.3108162424583,2.6615032392541385,-477.53251157,-7.46144549328125,"{""ALGO"": ""Fast"", ""AMIX"": 0.01, ""BMIX"": 0.0001, ""EDIFF"": 1e-05, ""EDIFFG"": -0.01, ""ENCUT"": 450.0, ""GGA"": ""Pe"", ""IBRION"": 2, ""ISIF"": 2, ""ISMEAR"": 1, ""ISPIN"": 1, ""ISTART"": 0, ""KPAR"": 1, ""LAECHG"": true, ""LCHARG"": true, ""LORBIT"": 10, ""LPLANE"": false, ""LREAL"": ""Auto"", ""NCORE"": 4, ""NELM"": 300, ""NSIM"": 1, ""NSW"": 2, ""PREC"": ""Accurate"", ""SIGMA"": 0.2, ""SYSTEM"": ""Al-44-d-4.19""}",Al-44-d-4.19,450.0,1,1,0.2,Pe,"{""Ti"": 4.0, ""Al"": 3.0}",255.0,,Al
BondOrder-VacuumGB-T2-Al-Al-45-d-4.19,BondOrder-VacuumGB,BondOrder-VacuumGB/T2/Al/Al-45-d-4.19,/mnt/e/Onedrive/TiGB-Project/Data/BondOrder-VacuumGB/T2/Al/Al-45-d-4.19,CONTCAR,64,Ti63 Al1,1898.3108162424583,2.6615032392541385,-477.49834334,-7.4609116146875,"{""ALGO"": ""Fast"", ""AMIX"": 0.01, ""BMIX"": 0.0001, ""EDIFF"": 1e-05, ""EDIFFG"": -0.01, ""ENCUT"": 450.0, ""GGA"": ""Pe"", ""IBRION"": 2, ""ISIF"": 2, ""ISMEAR"": 1, ""ISPIN"": 1, ""ISTART"": 0, ""KPAR"": 1, ""LAECHG"": true, ""LCHARG"": true, ""LORBIT"": 10, ""LPLANE"": false, ""LREAL"": ""Auto"", ""NCORE"": 4, ""NELM"": 300, ""NSIM"": 1, ""NSW"": 2, ""PREC"": ""Accurate"", ""SIGMA"": 0.2, ""SYSTEM"": ""Al-45-d-4.19""}",Al-45-d-4.19,450.0,1,1,0.2,Pe,"{""Ti"": 4.0, ""Al"": 3.0}",255.0,,Al