job_name,top_level,relpath,path,structure_file,num_atoms,formula,volume,density,energy_eV,energy_per_atom_eV,incar,incar_system,incar_encut,incar_ispin,incar_ismear,incar_sigma,incar_gga,potcar_nelectrons_map,potcar_total_nelectrons,parse_errors,solute
BondOrder-VacuumGB-T1g-V-V-48-d-6.96,BondOrder-VacuumGB,BondOrder-VacuumGB/T1g/V/V-48-d-6.96,/mnt/e/Onedrive/TiGB-Project/Data/BondOrder-VacuumGB/T1g/V/V-48-d-6.96,CONTCAR,64,Ti63 V1,1755.8344326646197,2.900129274038238,-485.83299847,-7.59114060109375,"{""ALGO"": ""Fast"", ""AMIX"": 0.01, ""BMIX"": 0.0001, ""EDIFF"": 1e-05, ""EDIFFG"": -0.01, ""ENCUT"": 450.0, ""GGA"": ""Pe"", ""IBRION"": 2, ""ISIF"": 2, ""ISMEAR"": 1, ""ISPIN"": 1, ""ISTART"": 0, ""KPAR"": 1, ""LAECHG"": true, ""LCHARG"": true, ""LORBIT"": 10, ""LPLANE"": false, ""LREAL"": ""Auto"", ""NCORE"": 4, ""NELM"": 300, ""NSIM"": 1, ""NSW"": 2, ""PREC"": ""Accurate"", ""SIGMA"": 0.2, ""SYSTEM"": ""V-48-d-6.96""}",V-48-d-6.96,450.0,1,1,0.2,Pe,"{""Ti"": 4.0, ""V"": 5.0}",257.0,,V
BondOrder-VacuumGB-T1g-V-V-49-d-6.96,BondOrder-VacuumGB,BondOrder-VacuumGB/T1g/V/V-49-d-6.96,/mnt/e/Onedrive/TiGB-Project/Data/BondOrder-VacuumGB/T1g/V/V-49-d-6.96,CONTCAR,64,Ti63 V1,1755.8344326646197,2.900129274038238,-485.83454311,-7.59116473609375,"{""ALGO"": ""Fast"", ""AMIX"": 0.01, ""BMIX"": 0.0001, ""EDIFF"": 1e-05, ""EDIFFG"": -0.01, ""ENCUT"": 450.0, ""GGA"": ""Pe"", ""IBRION"": 2, ""ISIF"": 2, ""ISMEAR"": 1, ""ISPIN"": 1, ""ISTART"": 0, ""KPAR"": 1, ""LAECHG"": true, ""LCHARG"": true, ""LORBIT"": 10, ""LPLANE"": false, ""LREAL"": ""Auto"", ""NCORE"": 4, ""NELM"": 300, ""NSIM"": 1, ""NSW"": 2, ""PREC"": ""Accurate"", ""SIGMA"": 0.2, ""SYSTEM"": ""V-49-d-6.96""}",V-49-d-6.96,450.0,1,1,0.2,Pe,"{""Ti"": 4.0, ""V"": 5.0}",257.0,,V
BondOrder-VacuumGB-T1m-Al-Al-32-d-0.00,BondOrder-VacuumGB,BondOrder-VacuumGB/T1m/Al/Al-32-d-0.00,/mnt/e/Onedrive/TiGB-Project/Data/BondOrder-VacuumGB/T1m/Al/Al-32-d-0.00,CONTCAR,64,Ti63 Al1,1756.1076583245747,2.877022010917432,-482.08518254,-7.5325809771875,"{""ALGO"": ""Fast"", ""AMIX"": 0.01, ""BMIX"": 0.0001, ""EDIFF"": 1e-05, ""EDIFFG"": -0.01, ""ENCUT"": 450.0, ""GGA"": ""Pe"", ""IBRION"": 2, ""ISIF"": 2, ""ISMEAR"": 1, ""ISPIN"": 1, ""ISTART"": 0, ""KPAR"": 1, ""LAECHG"": true, ""LCHARG"": true, ""LORBIT"": 10, ""LPLANE"": false, ""LREAL"": ""Auto"", ""NCORE"": 4, ""NELM"": 300, ""NSIM"": 1, ""NSW"": 2, ""PREC"": ""Accurate"", ""SIGMA"": 0.2, ""SYSTEM"": ""Al-32-d-0.00""}",Al-32-d-0.00,450.0,1,1,0.2,Pe,"{""Ti"": 4.0, ""Al"": 3.0}",255.0,,Al
BondOrder-VacuumGB-T1m-Al-Al-33-d-0.00,BondOrder-VacuumGB,BondOrder-VacuumGB/T1m/Al/Al-33-d-0.00,/mnt/e/Onedrive/TiGB-Project/Data/BondOrder-VacuumGB/T1m/Al/Al-33-d-0.00,CONTCAR,64,Ti63 Al1,1756.1076583245747,2.877022010917432,-482.09104124,-7.532672519375,"{""ALGO"": ""Fast"", ""AMIX"": 0.01, ""BMIX"": 0.0001, ""EDIFF"": 1e-05, ""EDIFFG"": -0.01, ""ENCUT"": 450.0, ""GGA"": ""Pe"", ""IBRION"": 2, ""ISIF"": 2, ""ISMEAR"": 1, ""ISPIN"": 1, ""ISTART"": 0, ""KPAR"": 1, ""LAECHG"": true, ""LCHARG"": true, ""LORBIT"": 10, ""LPLANE"": false, ""LREAL"": ""Auto"", ""NCORE"": 4, ""NELM"": 300, ""NSIM"": 1, ""NSW"": 2, ""PREC"": ""Accurate"", ""SIGMA"": 0.2, ""SYSTEM"": ""Al-33-d-0.00""}",Al-33-d-0.00,450.0,1,1,0.2,Pe,"{""Ti"": 4.0, ""Al"": 3.0}",255.0,,Al
BondOrder-VacuumGB-T1m-Al-Al-34-d-0.00,BondOrder-VacuumGB,BondOrder-VacuumGB/T1m/Al/Al-34-d-0.00,/mnt/e/Onedrive/TiGB-Project/Data/BondOrder-VacuumGB/T1m/Al/Al-34-d-0.00,CONTCAR,64,Ti63 Al1,1756.1076583245747,2.877022010917432,-481.93271301,-7.53019864078125,"{""ALGO"": ""Fast"", ""AMIX"": 0.01, ""BMIX"": 0.0001, ""EDIFF"": 1e-05, ""EDIFFG"": -0.01, ""ENCUT"": 450.0, ""GGA"": ""Pe"", ""IBRION"": 2, ""ISIF"": 2, ""ISMEAR"": 1, ""ISPIN"": 1, ""ISTART"": 0, ""KPAR"": 1, ""LAECHG"": true, ""LCHARG"": true, ""LORBIT"": 10, ""LPLANE"": false, ""LREAL"": ""Auto"", ""NCORE"": 4, ""NELM"": 300, ""NSIM"": 1, ""NSW"": 2, ""PREC"": ""Accurate"", ""SIGMA"": 0.2, ""SYSTEM"": ""Al-34-d-0.00""}",Al-34-d-0.00,450.0,1,1,0.2,Pe,"{""Ti"": 4.0, ""Al"": 3.0}",255.0,,Al
BondOrder-VacuumGB-T1m-Al-Al-35-d-0.00,BondOrder-VacuumGB,BondOrder-VacuumGB/T1m/Al/Al-35-d-0.00,/mnt/e/Onedrive/TiGB-Project/Data/BondOrder-VacuumGB/T1m/Al/Al-35-d-0.00,CONTCAR,64,Ti63 Al1,1756.1076583245747,2.877022010917432,-481.9255865,-7.5300872890625,"{""ALGO"": ""Fast"", ""AMIX"": 0.01, ""BMIX"": 0.0001, ""EDIFF"": 1e-05, ""EDIFFG"": -0.01, ""ENCUT"": 450.0, ""GGA"": ""Pe"", ""IBRION"": 2, ""ISIF"": 2, ""ISMEAR"": 1, ""ISPIN"": 1, ""ISTART"": 0, ""KPAR"": 1, ""LAECHG"": true, ""LCHARG"": true, ""LORBIT"": 10, ""LPLANE"": false, ""LREAL"": ""Auto"", ""NCORE"": 4, ""NELM"": 300, ""NSIM"": 1, ""NSW"": 2, ""PREC"": ""Accurate"", ""SIGMA"": 0.2, ""SYSTEM"": ""Al-35-d-0.00""}",Al-35-d-0.00,450.0,1,1,0.2,Pe,"{""Ti"": 4.0, ""Al"": 3.0}",255.0,,Al
BondOrder-VacuumGB-T1m-Al-Al-36-d-1.42,BondOrder-VacuumGB,BondOrder-VacuumGB/T1m/Al/Al-36-d-1.42,/mnt/e/Onedrive/TiGB-Project/Data/BondOrder-VacuumGB/T1m/Al/Al-36-d-1.42,CONTCAR,64,Ti63 Al1,1756.1076583245747,2.877022010917432,-479.94169825,-7.49908903515625,"{""ALGO"": ""Fast"", ""AMIX"": 0.01, ""BMIX"": 0.0001, ""EDIFF"": 1e-05, ""EDIFFG"": -0.01, ""ENCUT"": 450.0, ""GGA"": ""Pe"", ""IBRION"": 2, ""ISIF"": 2, ""ISMEAR"": 1, ""ISPIN"": 1, ""ISTART"": 0, ""KPAR"": 1, ""LAECHG"": true, ""LCHARG"": true, ""LORBIT"": 10, ""LPLANE"": false, ""LREAL"": ""Auto"", ""NCORE"": 4, ""NELM"": 300, ""NSIM"": 1, ""NSW"": 2, ""PREC"": ""Accurate"", ""SIGMA"": 0.2, ""SYSTEM"": ""Al-36-d-1.42""}",Al-36-d-1.42,450.0,1,1,0.2,Pe,"{""Ti"": 4.0, ""Al"": 3.0}",255.0,,Al
BondOrder-VacuumGB-T1m-Al-Al-37-d-1.42,BondOrder-VacuumGB,BondOrder-VacuumGB/T1m/Al/Al-37-d-1.42,/mnt/e/Onedrive/TiGB-Project/Data/BondOrder-VacuumGB/T1m/Al/Al-37-d-1.42,CONTCAR,64,Ti63 Al1,1756.1076583245747,2.877022010917432,-479.9432064,-7.4991126,"{""ALGO"": ""Fast"", ""AMIX"": 0.01, ""BMIX"": 0.0001, ""EDIFF"": 1e-05, ""EDIFFG"": -0.01, ""ENCUT"": 450.0, ""GGA"": ""Pe"", ""IBRION"": 2, ""ISIF"": 2, ""ISMEAR"": 1, ""ISPIN"": 1, ""ISTART"": 0, ""KPAR"": 1, ""LAECHG"": true, ""LCHARG"": true, ""LORBIT"": 10, ""LPLANE"": false, ""LREAL"": ""Auto"", ""NCORE"": 4, ""NELM"": 300, ""NSIM"": 1, ""NSW"": 2, ""PREC"": ""Accurate"", ""SIGMA"": 0.2, ""SYSTEM"": ""Al-37-d-1.42""}",Al-37-d-1.42,450.0,1,1,0.2,Pe,"{""Ti"": 4.0, ""Al"": 3.0}",255.0,,Al
BondOrder-VacuumGB-T1m-Al-Al-38-d-2.03,BondOrder-VacuumGB,BondOrder-VacuumGB/T1m/Al/Al-38-d-2.03,/mnt/e/Onedrive/TiGB-Project/Data/BondOrder-VacuumGB/T1m/Al/Al-38-d-2.03,CONTCAR,64,Ti63 Al1,1756.1076583245747,2.877022010917432,-482.04265516,-7.531916486875,"{""ALGO"": ""Fast"", ""AMIX"": 0.01, ""BMIX"": 0.0001, ""EDIFF"": 1e-05, ""EDIFFG"": -0.01, ""ENCUT"": 450.0, ""GGA"": ""Pe"", ""IBRION"": 2, ""ISIF"": 2, ""ISMEAR"": 1, ""ISPIN"": 1, ""ISTART"": 0, ""KPAR"": 1, ""LAECHG"": true, ""LCHARG"": true, ""LORBIT"": 10, ""LPLANE"": false, ""LREAL"": ""Auto"", ""NCORE"": 4, ""NELM"": 300, ""NSIM"": 1, ""NSW"": 2, ""PREC"": ""Accurate"", ""SIGMA"": 0.2, ""SYSTEM"": ""Al-38-d-2.03""}",Al-38-d-2.03,450.0,1,1,0.2,Pe,"{""Ti"": 4.0, ""Al"": 3.0}",255.0,,Al
BondOrder-VacuumGB-T1m-Al-Al-39-d-2.03,BondOrder-VacuumGB,BondOrder-VacuumGB/T1m/Al/Al-39-d-2.03,/mnt/e/Onedrive/TiGB-Project/Data/BondOrder-VacuumGB/T1m/Al/Al-39-d-2.03,CONTCAR,64,Ti63 Al1,1756.1076583245747,2.877022010917432,-482.04484756,-7.531950743125,"{""ALGO"": ""Fast"", ""AMIX"": 0.01, ""BMIX"": 0.0001, ""EDIFF"": 1e-05, ""EDIFFG"": -0.01, ""ENCUT"": 450.0, ""GGA"": ""Pe"", ""IBRION"": 2, ""ISIF"": 2, ""ISMEAR"": 1, ""ISPIN"": 1, ""ISTART"": 0, ""KPAR"": 1, ""LAECHG"": true, ""LCHARG"": true, ""LORBIT"": 10, ""LPLANE"": false, ""LREAL"": ""Auto"", ""NCORE"": 4, ""NELM"": 300, ""NSIM"": 1, ""NSW"": 2, ""PREC"": ""Accurate"", ""SIGMA"": 0.2, ""SYSTEM"": ""Al-39-d-2.03""}",Al-39-d-2.03,450.0,1,1,0.2,Pe,"{""Ti"": 4.0, ""Al"": 3.0}",255.0,,Al
BondOrder-VacuumGB-T1m-Al-Al-40-d-3.20,BondOrder-VacuumGB,BondOrder-VacuumGB/T1m/Al/Al-40-d-3.20,/mnt/e/Onedrive/TiGB-Project/Data/BondOrder-VacuumGB/T1m/Al/Al-40-d-3.20,CONTCAR,64,Ti63 Al1,1756.1076583245747,2.877022010917432,-480.04562982,-7.5007129659375,"{""ALGO"": ""Fast"", ""AMIX"": 0.01, ""BMIX"": 0.0001, ""EDIFF"": 1e-05, ""EDIFFG"": -0.01, ""ENCUT"": 450.0, ""GGA"": ""Pe"", ""IBRION"": 2, ""ISIF"": 2, ""ISMEAR"": 1, ""ISPIN"": 1, ""ISTART"": 0, ""KPAR"": 1, ""LAECHG"": true, ""LCHARG"": true, ""LORBIT"": 10, ""LPLANE"": false, ""LREAL"": ""Auto"", ""NCORE"": 4, ""NELM"": 300, ""NSIM"": 1, ""NSW"": 2, ""PREC"": ""Accurate"", ""SIGMA"": 0.2, ""SYSTEM"": ""Al-40-d-3.20""}",Al-40-d-3.20,450.0,1,1,0.2,Pe,"{""Ti"": 4.0, ""Al"": 3.0}",255.0,,Al
BondOrder-VacuumGB-T1m-Al-Al-41-d-3.20,BondOrder-VacuumGB,BondOrder-VacuumGB/T1m/Al/Al-41-d-3.20,/mnt/e/Onedrive/TiGB-Project/Data/BondOrder-VacuumGB/T1m/Al/Al-41-d-3.20,CONTCAR,64,Ti63 Al1,1756.1076583245747,2.877022010917432,-479.92839459,-7.49888116546875,"{""ALGO"": ""Fast"", ""AMIX"": 0.01, ""BMIX"": 0.0001, ""EDIFF"": 1e-05, ""EDIFFG"": -0.01, ""ENCUT"": 450.0, ""GGA"": ""Pe"", ""IBRION"": 2, ""ISIF"": 2, ""ISMEAR"": 1, ""ISPIN"": 1, ""ISTART"": 0, ""KPAR"": 1, ""LAECHG"": true, ""LCHARG"": true, ""LORBIT"": 10, ""LPLANE"": false, ""LREAL"": ""Auto"", ""NCORE"": 4, ""NELM"": 300, ""NSIM"": 1, ""NSW"": 2, ""PREC"": ""Accurate"", ""SIGMA"": 0.2, ""SYSTEM"": ""Al-41-d-3.20""}",Al-41-d-3.20,450.0,1,1,0.2,Pe,"{""Ti"": 4.0, ""Al"": 3.0}",255.0,,Al
BondOrder-VacuumGB-T1m-Al-Al-42-d-3.62,BondOrder-VacuumGB,BondOrder-VacuumGB/T1m/Al/Al-42-d-3.62,/mnt/e/Onedrive/TiGB-Project/Data/BondOrder-VacuumGB/T1m/Al/Al-42-d-3.62,CONTCAR,64,Ti63 Al1,1756.1076583245747,2.877022010917432,-481.99373433,-7.53115209890625,"{""ALGO"": ""Fast"", ""AMIX"": 0.01, ""BMIX"": 0.0001, ""EDIFF"": 1e-05, ""EDIFFG"": -0.01, ""ENCUT"": 450.0, ""GGA"": ""Pe"", ""IBRION"": 2, ""ISIF"": 2, ""ISMEAR"": 1, ""ISPIN"": 1, ""ISTART"": 0, ""KPAR"": 1, ""LAECHG"": true, ""LCHARG"": true, ""LORBIT"": 10, ""LPLANE"": false, ""LREAL"": ""Auto"", ""NCORE"": 4, ""NELM"": 300, ""NSIM"": 1, ""NSW"": 2, ""PREC"": ""Accurate"", ""SIGMA"": 0.2, ""SYSTEM"": ""Al-42-d-3.62""}",Al-42-d-3.62,450.0,1,1,0.2,Pe,"{""Ti"": 4.0, ""Al"": 3.0}",255.0,,Al
BondOrder-VacuumGB-T1m-Al-Al-43-d-3.62,BondOrder-VacuumGB,BondOrder-VacuumGB/T1m/Al/Al-43-d-3.62,/mnt/e/Onedrive/TiGB-Project/Data/BondOrder-VacuumGB/T1m/Al/Al-43-d-3.62,CONTCAR,64,Ti63 Al1,1756.1076583245747,2.877022010917432,-481.99603352,-7.53118802375,"{""ALGO"": ""Fast"", ""AMIX"": 0.01, ""BMIX"": 0.0001, ""EDIFF"": 1e-05, ""EDIFFG"": -0.01, ""ENCUT"": 450.0, ""GGA"": ""Pe"", ""IBRION"": 2, ""ISIF"": 2, ""ISMEAR"": 1, ""ISPIN"": 1, ""ISTART"": 0, ""KPAR"": 1, ""LAECHG"": true, ""LCHARG"": true, ""LORBIT"": 10, ""LPLANE"": false, ""LREAL"": ""Auto"", ""NCORE"": 4, ""NELM"": 300, ""NSIM"": 1, ""NSW"": 2, ""PREC"": ""Accurate"", ""SIGMA"": 0.2, ""SYSTEM"": ""Al-43-d-3.62""}",Al-43-d-3.62,450.0,1,1,0.2,Pe,"{""Ti"": 4.0, ""Al"": 3.0}",255.0,,Al
BondOrder-VacuumGB-T1m-Al-Al-44-d-4.84,BondOrder-VacuumGB,BondOrder-VacuumGB/T1m/Al/Al-44-d-4.84,/mnt/e/Onedrive/TiGB-Project/Data/BondOrder-VacuumGB/T1m/Al/Al-44-d-4.84,CONTCAR,64,Ti63 Al1,1756.1076583245747,2.877022010917432,-482.07478331,-7.53241848921875,"{""ALGO"": ""Fast"", ""AMIX"": 0.01, ""BMIX"": 0.0001, ""EDIFF"": 1e-05, ""EDIFFG"": -0.01, ""ENCUT"": 450.0, ""GGA"": ""Pe"", ""IBRION"": 2, ""ISIF"": 2, ""ISMEAR"": 1, ""ISPIN"": 1, ""ISTART"": 0, ""KPAR"": 1, ""LAECHG"": true, ""LCHARG"": true, ""LORBIT"": 10, ""LPLANE"": false, ""LREAL"": ""Auto"", ""NCORE"": 4, ""NELM"": 300, ""NSIM"": 1, ""NSW"": 2, ""PREC"": ""Accurate"", ""SIGMA"": 0.2, ""SYSTEM"": ""Al-44-d-4.84""}",Al-44-d-4.84,450.0,1,1,0.2,Pe,"{""Ti"": 4.0, ""Al"": 3.0}",255.0,,Al
BondOrder-VacuumGB-T1m-Al-Al-45-d-4.84,BondOrder-VacuumGB,BondOrder-VacuumGB/T1m/Al/Al-45-d-4.84,/mnt/e/Onedrive/TiGB-Project/Data/BondOrder-VacuumGB/T1m/Al/Al-45-d-4.84,CONTCAR,64,Ti63 Al1,1756.1076583245747,2.877022010917432,-482.07821024,-7.532472035,"{""ALGO"": ""Fast"", ""AMIX"": 0.01, ""BMIX"": 0.0001, ""EDIFF"": 1e-05, ""EDIFFG"": -0.01, ""ENCUT"": 450.0, ""GGA"": ""Pe"", ""IBRION"": 2, ""ISIF"": 2, ""ISMEAR"": 1, ""ISPIN"": 1, ""ISTART"": 0, ""KPAR"": 1, ""LAECHG"": true, ""LCHARG"": true, ""LORBIT"": 10, ""LPLANE"": false, ""LREAL"": ""Auto"", ""NCORE"": 4, ""NELM"": 300, ""NSIM"": 1, ""NSW"": 2, ""PREC"": ""Accurate"", ""SIGMA"": 0.2, ""SYSTEM"": ""Al-45-d-4.84""}",Al-45-d-4.84,450.0,1,1,0.2,Pe,"{""Ti"": 4.0, ""Al"": 3.0}",255.0,,Al
BondOrder-VacuumGB-T1m-Al-Al-46-d-5.43,BondOrder-VacuumGB,BondOrder-VacuumGB/T1m/Al/Al-46-d-5.43,/mnt/e/Onedrive/TiGB-Project/Data/BondOrder-VacuumGB/T1m/Al/Al-46-d-5.43,CONTCAR,64,Ti63 Al1,1756.1076583245747,2.877022010917432,-482.05404428,-7.532094441875,"{""ALGO"": ""Fast"", ""AMIX"": 0.01, ""BMIX"": 0.0001, ""EDIFF"": 1e-05, ""EDIFFG"": -0.01, ""ENCUT"": 450.0, ""GGA"": ""Pe"", ""IBRION"": 2, ""ISIF"": 2, ""ISMEAR"": 1, ""ISPIN"": 1, ""ISTART"": 0, ""KPAR"": 1, ""LAECHG"": true, ""LCHARG"": true, ""LORBIT"": 10, ""LPLANE"": false, ""LREAL"": ""Auto"", ""NCORE"": 4, ""NELM"": 300, ""NSIM"": 1, ""NSW"": 2, ""PREC"": ""Accurate"", ""SIGMA"": 0.2, ""SYSTEM"": ""Al-46-d-5.43""}",Al-46-d-5.43,450.0,1,1,0.2,Pe,"{""Ti"": 4.0, ""Al"": 3.0}",255.0,,Al
BondOrder-VacuumGB-T1m-Al-Al-47-d-5.43,BondOrder-VacuumGB,BondOrder-VacuumGB/T1m/Al/Al-47-d-5.43,/mnt/e/Onedrive/TiGB-Project/Data/BondOrder-VacuumGB/T1m/Al/Al-47-d-5.43,CONTCAR,64,Ti63 Al1,1756.1076583245747,2.877022010917432,-482.04601619,-7.53196900296875,"{""ALGO"": ""Fast"", ""AMIX"": 0.01, ""BMIX"": 0.0001, ""EDIFF"": 1e-05, ""EDIFFG"": -0.01, ""ENCUT"": 450.0, ""GGA"": ""Pe"", ""IBRION"": 2, ""ISIF"": 2, ""ISMEAR"": 1, ""ISPIN"": 1, ""ISTART"": 0, ""KPAR"": 1, ""LAECHG"": true, ""LCHARG"": true, ""LORBIT"": 10, ""LPLANE"": false, ""LREAL"": ""Auto"", ""NCORE"": 4, ""NELM"": 300, ""NSIM"": 1, ""NSW"": 2, ""PREC"": ""Accurate"", ""SIGMA"": 0.2, ""SYSTEM"": ""Al-47-d-5.43""}",Al-47-d-5.43,450.0,1,1,0.2,Pe,"{""Ti"": 4.0, ""Al"": 3.0}",255.0,,Al
BondOrder-VacuumGB-T1m-Al-Al-48-d-6.60,BondOrder-VacuumGB,BondOrder-VacuumGB/T1m/Al/Al-48-d-6.60,/mnt/e/Onedrive/TiGB-Project/Data/BondOrder-VacuumGB/T1m/Al/Al-48-d-6.60,CONTCAR,64,Ti63 Al1,1756.1076583245747,2.877022010917432,-482.03153174,-7.5317426834375,"{""ALGO"": ""Fast"", ""AMIX"": 0.01, ""BMIX"": 0.0001, ""EDIFF"": 1e-05, ""EDIFFG"": -0.01, ""ENCUT"": 450.0, ""GGA"": ""Pe"", ""IBRION"": 2, ""ISIF"": 2, ""ISMEAR"": 1, ""ISPIN"": 1, ""ISTART"": 0, ""KPAR"": 1, ""LAECHG"": true, ""LCHARG"": true, ""LORBIT"": 10, ""LPLANE"": false, ""LREAL"": ""Auto"", ""NCORE"": 4, ""NELM"": 300, ""NSIM"": 1, ""NSW"": 2, ""PREC"": ""Accurate"", ""SIGMA"": 0.2, ""SYSTEM"": ""Al-48-d-6.60""}",Al-48-d-6.60,450.0,1,1,0.2,Pe,"{""Ti"": 4.0, ""Al"": 3.0}",255.0,,Al
BondOrder-VacuumGB-T1m-Al-Al-49-d-6.60,BondOrder-VacuumGB,BondOrder-VacuumGB/T1m/Al/Al-49-d-6.60,/mnt/e/Onedrive/TiGB-Project/Data/BondOrder-VacuumGB/T1m/Al/Al-49-d-6.60,CONTCAR,64,Ti63 Al1,1756.1076583245747,2.877022010917432,-482.03281521,-7.53176273765625,"{""ALGO"": ""Fast"", ""AMIX"": 0.01, ""BMIX"": 0.0001, ""EDIFF"": 1e-05, ""EDIFFG"": -0.01, ""ENCUT"": 450.0, ""GGA"": ""Pe"", ""IBRION"": 2, ""ISIF"": 2, ""ISMEAR"": 1, ""ISPIN"": 1, ""ISTART"": 0, ""KPAR"": 1, ""LAECHG"": true, ""LCHARG"": true, ""LORBIT"": 10, ""LPLANE"": false, ""LREAL"": ""Auto"", ""NCORE"": 4, ""NELM"": 300, ""NSIM"": 1, ""NSW"": 2, ""PREC"": ""Accurate"", ""SIGMA"": 0.2, ""SYSTEM"": ""Al-49-d-6.60""}",Al-49-d-6.60,450.0,1,1,0.2,Pe,"{""Ti"": 4.0, ""Al"": 3.0}",255.0,,Al
BondOrder-VacuumGB-T1m-V-V-32-d-0.00,BondOrder-VacuumGB,BondOrder-VacuumGB/T1m/V/V-32-d-0.00,/mnt/e/Onedrive/TiGB-Project/Data/BondOrder-VacuumGB/T1m/V/V-32-d-0.00,CONTCAR,64,Ti63 V1,1756.1076583245747,2.8996780547003476,-483.96361801,-7.56193153140625,"{""ALGO"": ""Fast"", ""AMIX"": 0.01, ""BMIX"": 0.0001, ""EDIFF"": 1e-05, ""EDIFFG"": -0.01, ""ENCUT"": 450.0, ""GGA"": ""Pe"", ""IBRION"": 2, ""ISIF"": 2, ""ISMEAR"": 1, ""ISPIN"": 1, ""ISTART"": 0, ""KPAR"": 1, ""LAECHG"": true, ""LCHARG"": true, ""LORBIT"": 10, ""LPLANE"": false, ""LREAL"": ""Auto"", ""NCORE"": 4, ""NELM"": 300, ""NSIM"": 1, ""NSW"": 2, ""PREC"": ""Accurate"", ""SIGMA"": 0.2, ""SYSTEM"": ""V-32-d-0.00""}",V-32-d-0.00,450.0,1,1,0.2,Pe,"{""Ti"": 4.0, ""V"": 5.0}",257.0,,V
BondOrder-VacuumGB-T1m-V-V-33-d-0.00,BondOrder-VacuumGB,BondOrder-VacuumGB/T1m/V/V-33-d-0.00,/mnt/e/Onedrive/TiGB-Project/Data/BondOrder-VacuumGB/T1m/V/V-33-d-0.00,CONTCAR,64,Ti63 V1,1756.1076583245747,2.8996780547003476,-486.11978746,-7.5956216790625,"{""ALGO"": ""Fast"", ""AMIX"": 0.01, ""BMIX"": 0.0001, ""EDIFF"": 1e-05, ""EDIFFG"": -0.01, ""ENCUT"": 450.0, ""GGA"": ""Pe"", ""IBRION"": 2, ""ISIF"": 2, ""ISMEAR"": 1, ""ISPIN"": 1, ""ISTART"": 0, ""KPAR"": 1, ""LAECHG"": true, ""LCHARG"": true, ""LORBIT"": 10, ""LPLANE"": false, ""LREAL"": ""Auto"", ""NCORE"": 4, ""NELM"": 300, ""NSIM"": 1, ""NSW"": 2, ""PREC"": ""Accurate"", ""SIGMA"": 0.2, ""SYSTEM"": ""V-33-d-0.00""}",V-33-d-0.00,450.0,1,1,0.2,Pe,"{""Ti"": 4.0, ""V"": 5.0}",257.0,,V
BondOrder-VacuumGB-T1m-V-V-34-d-0.00,BondOrder-VacuumGB,BondOrder-VacuumGB/T1m/V/V-34-d-0.00,/mnt/e/Onedrive/TiGB-Project/Data/BondOrder-VacuumGB/T1m/V/V-34-d-0.00,CONTCAR,64,Ti63 V1,1756.1076583245747,2.8996780547003476,-485.72784293,-7.58949754578125,"{""ALGO"": ""Fast"", ""AMIX"": 0.01, ""BMIX"": 0.0001, ""EDIFF"": 1e-05, ""EDIFFG"": -0.01, ""ENCUT"": 450.0, ""GGA"": ""Pe"", ""IBRION"": 2, ""ISIF"": 2, ""ISMEAR"": 1, ""ISPIN"": 1, ""ISTART"": 0, ""KPAR"": 1, ""LAECHG"": true, ""LCHARG"": true, ""LORBIT"": 10, ""LPLANE"": false, ""LREAL"": ""Auto"", ""NCORE"": 4, ""NELM"": 300, ""NSIM"": 1, ""NSW"": 2, ""PREC"": ""Accurate"", ""SIGMA"": 0.2, ""SYSTEM"": ""V-34-d-0.00""}",V-34-d-0.00,450.0,1,1,0.2,Pe,"{""Ti"": 4.0, ""V"": 5.0}",257.0,,V
BondOrder-VacuumGB-T1m-V-V-35-d-0.00,BondOrder-VacuumGB,BondOrder-VacuumGB/T1m/V/V-35-d-0.00,/mnt/e/Onedrive/TiGB-Project/Data/BondOrder-VacuumGB/T1m/V/V-35-d-0.00,CONTCAR,64,Ti63 V1,1756.1076583245747,2.8996780547003476,-485.72272953,-7.58941764890625,"{""ALGO"": ""Fast"", ""AMIX"": 0.01, ""BMIX"": 0.0001, ""EDIFF"": 1e-05, ""EDIFFG"": -0.01, ""ENCUT"": 450.0, ""GGA"": ""Pe"", ""IBRION"": 2, ""ISIF"": 2, ""ISMEAR"": 1, ""ISPIN"": 1, ""ISTART"": 0, ""KPAR"": 1, ""LAECHG"": true, ""LCHARG"": true, ""LORBIT"": 10, ""LPLANE"": false, ""LREAL"": ""Auto"", ""NCORE"": 4, ""NELM"": 300, ""NSIM"": 1, ""NSW"": 2, ""PREC"": ""Accurate"", ""SIGMA"": 0.2, ""SYSTEM"": ""V-35-d-0.00""}",V-35-d-0.00,450.0,1,1,0.2,Pe,"{""Ti"": 4.0, ""V"": 5.0}",257.0,,V
BondOrder-VacuumGB-T1m-V-V-36-d-1.42,BondOrder-VacuumGB,BondOrder-VacuumGB/T1m/V/V-36-d-1.42,/mnt/e/Onedrive/TiGB-Project/Data/BondOrder-VacuumGB/T1m/V/V-36-d-1.42,CONTCAR,64,Ti63 V1,1756.1076583245747,2.8996780547003476,-485.95473757,-7.59304277453125,"{""ALGO"": ""Fast"", ""AMIX"": 0.01, ""BMIX"": 0.0001, ""EDIFF"": 1e-05, ""EDIFFG"": -0.01, ""ENCUT"": 450.0, ""GGA"": ""Pe"", ""IBRION"": 2, ""ISIF"": 2, ""ISMEAR"": 1, ""ISPIN"": 1, ""ISTART"": 0, ""KPAR"": 1, ""LAECHG"": true, ""LCHARG"": true, ""LORBIT"": 10, ""LPLANE"": false, ""LREAL"": ""Auto"", ""NCORE"": 4, ""NELM"": 300, ""NSIM"": 1, ""NSW"": 2, ""PREC"": ""Accurate"", ""SIGMA"": 0.2, ""SYSTEM"": ""V-36-d-1.42""}",V-36-d-1.42,450.0,1,1,0.2,Pe,"{""Ti"": 4.0, ""V"": 5.0}",257.0,,V
BondOrder-VacuumGB-T1m-V-V-37-d-1.42,BondOrder-VacuumGB,BondOrder-VacuumGB/T1m/V/V-37-d-1.42,/mnt/e/Onedrive/TiGB-Project/Data/BondOrder-VacuumGB/T1m/V/V-37-d-1.42,CONTCAR,64,Ti63 V1,1756.1076583245747,2.8996780547003476,-483.83526504,-7.55992601625,"{""ALGO"": ""Fast"", ""AMIX"": 0.01, ""BMIX"": 0.0001, ""EDIFF"": 1e-05, ""EDIFFG"": -0.01, ""ENCUT"": 450.0, ""GGA"": ""Pe"", ""IBRION"": 2, ""ISIF"": 2, ""ISMEAR"": 1, ""ISPIN"": 1, ""ISTART"": 0, ""KPAR"": 1, ""LAECHG"": true, ""LCHARG"": true, ""LORBIT"": 10, ""LPLANE"": false, ""LREAL"": ""Auto"", ""NCORE"": 4, ""NELM"": 300, ""NSIM"": 1, ""NSW"": 2, ""PREC"": ""Accurate"", ""SIGMA"": 0.2, ""SYSTEM"": ""V-37-d-1.42""}",V-37-d-1.42,450.0,1,1,0.2,Pe,"{""Ti"": 4.0, ""V"": 5.0}",257.0,,V