job_name,top_level,relpath,path,structure_file,num_atoms,formula,volume,density,energy_eV,energy_per_atom_eV,incar,incar_system,incar_encut,incar_ispin,incar_ismear,incar_sigma,incar_gga,potcar_nelectrons_map,potcar_total_nelectrons,parse_errors,solute
Segregation-1sol-T2-V-V-32-d-0.00,Segregation-1sol,Segregation-1sol/T2/V/V-32-d-0.00,/mnt/e/Onedrive/TiGB-Project/Data/Segregation-1sol/T2/V/V-32-d-0.00,CONTCAR,64,Ti63 V1,1105.3570633764582,4.606789070474978,-496.12767454,-7.7519949146875,"{""ALGO"": ""Fast"", ""AMIX"": 0.01, ""BMIX"": 0.0001, ""EDIFF"": 0.0001, ""EDIFFG"": -0.02, ""ENCUT"": 450.0, ""GGA"": ""Pe"", ""IBRION"": 2, ""ISIF"": 2, ""ISMEAR"": 1, ""ISPIN"": 1, ""ISTART"": 0, ""KPAR"": 4, ""LORBIT"": 10, ""LPLANE"": false, ""LREAL"": ""Auto"", ""NCORE"": 4, ""NELM"": 120, ""NSIM"": 1, ""NSW"": 60, ""PREC"": ""Accurate"", ""SIGMA"": 0.2, ""SYSTEM"": ""V-32-d-0.00""}",V-32-d-0.00,450.0,1,1,0.2,Pe,"{""Ti"": 4.0, ""V"": 5.0}",257.0,,V
Segregation-1sol-T2-V-V-33-d-0.00,Segregation-1sol,Segregation-1sol/T2/V/V-33-d-0.00,/mnt/e/Onedrive/TiGB-Project/Data/Segregation-1sol/T2/V/V-33-d-0.00,CONTCAR,64,Ti63 V1,1105.3570633764582,4.606789070474978,-496.13217126,-7.7520651759375,"{""ALGO"": ""Fast"", ""AMIX"": 0.01, ""BMIX"": 0.0001, ""EDIFF"": 0.0001, ""EDIFFG"": -0.02, ""ENCUT"": 450.0, ""GGA"": ""Pe"", ""IBRION"": 2, ""ISIF"": 2, ""ISMEAR"": 1, ""ISPIN"": 1, ""ISTART"": 0, ""KPAR"": 4, ""LORBIT"": 10, ""LPLANE"": false, ""LREAL"": ""Auto"", ""NCORE"": 4, ""NELM"": 120, ""NSIM"": 1, ""NSW"": 60, ""PREC"": ""Accurate"", ""SIGMA"": 0.2, ""SYSTEM"": ""V-33-d-0.00""}",V-33-d-0.00,450.0,1,1,0.2,Pe,"{""Ti"": 4.0, ""V"": 5.0}",257.0,,V
Segregation-1sol-T2-V-V-34-d-0.63,Segregation-1sol,Segregation-1sol/T2/V/V-34-d-0.63,/mnt/e/Onedrive/TiGB-Project/Data/Segregation-1sol/T2/V/V-34-d-0.63,CONTCAR,64,Ti63 V1,1105.3570633764582,4.606789070474978,-496.23803216,-7.7537192525,"{""ALGO"": ""Fast"", ""AMIX"": 0.01, ""BMIX"": 0.0001, ""EDIFF"": 0.0001, ""EDIFFG"": -0.02, ""ENCUT"": 450.0, ""GGA"": ""Pe"", ""IBRION"": 2, ""ISIF"": 2, ""ISMEAR"": 1, ""ISPIN"": 1, ""ISTART"": 0, ""KPAR"": 4, ""LORBIT"": 10, ""LPLANE"": false, ""LREAL"": ""Auto"", ""NCORE"": 4, ""NELM"": 120, ""NSIM"": 1, ""NSW"": 60, ""PREC"": ""Accurate"", ""SIGMA"": 0.2, ""SYSTEM"": ""V-34-d-0.63""}",V-34-d-0.63,450.0,1,1,0.2,Pe,"{""Ti"": 4.0, ""V"": 5.0}",257.0,,V
Segregation-1sol-T2-V-V-35-d-0.63,Segregation-1sol,Segregation-1sol/T2/V/V-35-d-0.63,/mnt/e/Onedrive/TiGB-Project/Data/Segregation-1sol/T2/V/V-35-d-0.63,CONTCAR,64,Ti63 V1,1105.3570633764582,4.606789070474978,-496.2405338,-7.753758340625,"{""ALGO"": ""Normal"", ""AMIX"": 0.01, ""BMIX"": 0.0001, ""EDIFF"": 0.0001, ""EDIFFG"": -0.02, ""ENCUT"": 450.0, ""GGA"": ""Pe"", ""IBRION"": 2, ""ISIF"": 2, ""ISMEAR"": 1, ""ISPIN"": 1, ""ISTART"": 0, ""KPAR"": 4, ""LORBIT"": 10, ""LPLANE"": false, ""LREAL"": ""Auto"", ""NCORE"": 4, ""NELM"": 120, ""NSIM"": 1, ""NSW"": 60, ""PREC"": ""Accurate"", ""SIGMA"": 0.2, ""SYSTEM"": ""V-35-d-0.63""}",V-35-d-0.63,450.0,1,1,0.2,Pe,"{""Ti"": 4.0, ""V"": 5.0}",257.0,,V
Segregation-1sol-T2-V-V-36-d-1.39,Segregation-1sol,Segregation-1sol/T2/V/V-36-d-1.39,/mnt/e/Onedrive/TiGB-Project/Data/Segregation-1sol/T2/V/V-36-d-1.39,CONTCAR,64,Ti63 V1,1105.3570633764582,4.606789070474978,-496.07779412,-7.751215533125,"{""ALGO"": ""Fast"", ""AMIX"": 0.01, ""BMIX"": 0.0001, ""EDIFF"": 0.0001, ""EDIFFG"": -0.02, ""ENCUT"": 450.0, ""GGA"": ""Pe"", ""IBRION"": 2, ""ISIF"": 2, ""ISMEAR"": 1, ""ISPIN"": 1, ""ISTART"": 0, ""KPAR"": 4, ""LORBIT"": 10, ""LPLANE"": false, ""LREAL"": ""Auto"", ""NCORE"": 4, ""NELM"": 120, ""NSIM"": 1, ""NSW"": 60, ""PREC"": ""Accurate"", ""SIGMA"": 0.2, ""SYSTEM"": ""V-36-d-1.39""}",V-36-d-1.39,450.0,1,1,0.2,Pe,"{""Ti"": 4.0, ""V"": 5.0}",257.0,,V
Segregation-1sol-T2-V-V-37-d-1.39,Segregation-1sol,Segregation-1sol/T2/V/V-37-d-1.39,/mnt/e/Onedrive/TiGB-Project/Data/Segregation-1sol/T2/V/V-37-d-1.39,CONTCAR,64,Ti63 V1,1105.3570633764582,4.606789070474978,-496.07944548,-7.751241335625,"{""ALGO"": ""Normal"", ""AMIX"": 0.01, ""BMIX"": 0.0001, ""EDIFF"": 0.0001, ""EDIFFG"": -0.02, ""ENCUT"": 450.0, ""GGA"": ""Pe"", ""IBRION"": 2, ""ISIF"": 2, ""ISMEAR"": 1, ""ISPIN"": 1, ""ISTART"": 0, ""KPAR"": 4, ""LORBIT"": 10, ""LPLANE"": false, ""LREAL"": ""Auto"", ""NCORE"": 4, ""NELM"": 120, ""NSIM"": 1, ""NSW"": 60, ""PREC"": ""Accurate"", ""SIGMA"": 0.2, ""SYSTEM"": ""V-37-d-1.39""}",V-37-d-1.39,450.0,1,1,0.2,Pe,"{""Ti"": 4.0, ""V"": 5.0}",257.0,,V
Segregation-1sol-T2-V-V-38-d-2.12,Segregation-1sol,Segregation-1sol/T2/V/V-38-d-2.12,/mnt/e/Onedrive/TiGB-Project/Data/Segregation-1sol/T2/V/V-38-d-2.12,CONTCAR,64,Ti63 V1,1105.3570633764582,4.606789070474978,-496.05780744,-7.75090324125,"{""ALGO"": ""Fast"", ""AMIX"": 0.01, ""BMIX"": 0.0001, ""EDIFF"": 0.0001, ""EDIFFG"": -0.02, ""ENCUT"": 450.0, ""GGA"": ""Pe"", ""IBRION"": 2, ""ISIF"": 2, ""ISMEAR"": 1, ""ISPIN"": 1, ""ISTART"": 0, ""KPAR"": 4, ""LORBIT"": 10, ""LPLANE"": false, ""LREAL"": ""Auto"", ""NCORE"": 4, ""NELM"": 120, ""NSIM"": 1, ""NSW"": 60, ""PREC"": ""Accurate"", ""SIGMA"": 0.2, ""SYSTEM"": ""V-38-d-2.12""}",V-38-d-2.12,450.0,1,1,0.2,Pe,"{""Ti"": 4.0, ""V"": 5.0}",257.0,,V
Segregation-1sol-T2-V-V-39-d-2.12,Segregation-1sol,Segregation-1sol/T2/V/V-39-d-2.12,/mnt/e/Onedrive/TiGB-Project/Data/Segregation-1sol/T2/V/V-39-d-2.12,CONTCAR,64,Ti63 V1,1105.3570633764582,4.606789070474978,-496.05732971,-7.75089577671875,"{""ALGO"": ""Fast"", ""AMIX"": 0.01, ""BMIX"": 0.0001, ""EDIFF"": 0.0001, ""EDIFFG"": -0.02, ""ENCUT"": 450.0, ""GGA"": ""Pe"", ""IBRION"": 2, ""ISIF"": 2, ""ISMEAR"": 1, ""ISPIN"": 1, ""ISTART"": 0, ""KPAR"": 4, ""LORBIT"": 10, ""LPLANE"": false, ""LREAL"": ""Auto"", ""NCORE"": 4, ""NELM"": 120, ""NSIM"": 1, ""NSW"": 60, ""PREC"": ""Accurate"", ""SIGMA"": 0.2, ""SYSTEM"": ""V-39-d-2.12""}",V-39-d-2.12,450.0,1,1,0.2,Pe,"{""Ti"": 4.0, ""V"": 5.0}",257.0,,V
Segregation-1sol-T2-V-V-40-d-2.77,Segregation-1sol,Segregation-1sol/T2/V/V-40-d-2.77,/mnt/e/Onedrive/TiGB-Project/Data/Segregation-1sol/T2/V/V-40-d-2.77,CONTCAR,64,Ti63 V1,1105.3570633764582,4.606789070474978,-496.04941689,-7.75077213890625,"{""ALGO"": ""Fast"", ""AMIX"": 0.01, ""BMIX"": 0.0001, ""EDIFF"": 0.0001, ""EDIFFG"": -0.02, ""ENCUT"": 450.0, ""GGA"": ""Pe"", ""IBRION"": 2, ""ISIF"": 2, ""ISMEAR"": 1, ""ISPIN"": 1, ""ISTART"": 0, ""KPAR"": 4, ""LORBIT"": 10, ""LPLANE"": false, ""LREAL"": ""Auto"", ""NCORE"": 4, ""NELM"": 120, ""NSIM"": 1, ""NSW"": 60, ""PREC"": ""Accurate"", ""SIGMA"": 0.2, ""SYSTEM"": ""V-40-d-2.77""}",V-40-d-2.77,450.0,1,1,0.2,Pe,"{""Ti"": 4.0, ""V"": 5.0}",257.0,,V
Segregation-1sol-T2-V-V-41-d-2.77,Segregation-1sol,Segregation-1sol/T2/V/V-41-d-2.77,/mnt/e/Onedrive/TiGB-Project/Data/Segregation-1sol/T2/V/V-41-d-2.77,CONTCAR,64,Ti63 V1,1105.3570633764582,4.606789070474978,-496.05250764,-7.750820431875,"{""ALGO"": ""Normal"", ""AMIX"": 0.01, ""BMIX"": 0.0001, ""EDIFF"": 0.0001, ""EDIFFG"": -0.02, ""ENCUT"": 450.0, ""GGA"": ""Pe"", ""IBRION"": 2, ""ISIF"": 2, ""ISMEAR"": 1, ""ISPIN"": 1, ""ISTART"": 0, ""KPAR"": 4, ""LORBIT"": 10, ""LPLANE"": false, ""LREAL"": ""Auto"", ""NCORE"": 4, ""NELM"": 120, ""NSIM"": 1, ""NSW"": 60, ""PREC"": ""Accurate"", ""SIGMA"": 0.2, ""SYSTEM"": ""V-41-d-2.77""}",V-41-d-2.77,450.0,1,1,0.2,Pe,"{""Ti"": 4.0, ""V"": 5.0}",257.0,,V
Segregation-1sol-T2-V-V-42-d-3.50,Segregation-1sol,Segregation-1sol/T2/V/V-42-d-3.50,/mnt/e/Onedrive/TiGB-Project/Data/Segregation-1sol/T2/V/V-42-d-3.50,CONTCAR,64,Ti63 V1,1105.3570633764582,4.606789070474978,-496.00030106,-7.7500047040625,"{""ALGO"": ""Fast"", ""AMIX"": 0.01, ""BMIX"": 0.0001, ""EDIFF"": 0.0001, ""EDIFFG"": -0.02, ""ENCUT"": 450.0, ""GGA"": ""Pe"", ""IBRION"": 2, ""ISIF"": 2, ""ISMEAR"": 1, ""ISPIN"": 1, ""ISTART"": 0, ""KPAR"": 4, ""LORBIT"": 10, ""LPLANE"": false, ""LREAL"": ""Auto"", ""NCORE"": 4, ""NELM"": 120, ""NSIM"": 1, ""NSW"": 60, ""PREC"": ""Accurate"", ""SIGMA"": 0.2, ""SYSTEM"": ""V-42-d-3.50""}",V-42-d-3.50,450.0,1,1,0.2,Pe,"{""Ti"": 4.0, ""V"": 5.0}",257.0,,V
Segregation-1sol-T2-V-V-43-d-3.50,Segregation-1sol,Segregation-1sol/T2/V/V-43-d-3.50,/mnt/e/Onedrive/TiGB-Project/Data/Segregation-1sol/T2/V/V-43-d-3.50,CONTCAR,64,Ti63 V1,1105.3570633764582,4.606789070474978,-496.00518633,-7.75008103640625,"{""ALGO"": ""Fast"", ""AMIX"": 0.01, ""BMIX"": 0.0001, ""EDIFF"": 0.0001, ""EDIFFG"": -0.02, ""ENCUT"": 450.0, ""GGA"": ""Pe"", ""IBRION"": 2, ""ISIF"": 2, ""ISMEAR"": 1, ""ISPIN"": 1, ""ISTART"": 0, ""KPAR"": 4, ""LORBIT"": 10, ""LPLANE"": false, ""LREAL"": ""Auto"", ""NCORE"": 4, ""NELM"": 120, ""NSIM"": 1, ""NSW"": 60, ""PREC"": ""Accurate"", ""SIGMA"": 0.2, ""SYSTEM"": ""V-43-d-3.50""}",V-43-d-3.50,450.0,1,1,0.2,Pe,"{""Ti"": 4.0, ""V"": 5.0}",257.0,,V
Segregation-1sol-T2-V-V-44-d-4.19,Segregation-1sol,Segregation-1sol/T2/V/V-44-d-4.19,/mnt/e/Onedrive/TiGB-Project/Data/Segregation-1sol/T2/V/V-44-d-4.19,CONTCAR,64,Ti63 V1,1105.3570633764582,4.606789070474978,-496.07579511,-7.75118429859375,"{""ALGO"": ""Fast"", ""AMIX"": 0.01, ""BMIX"": 0.0001, ""EDIFF"": 0.0001, ""EDIFFG"": -0.02, ""ENCUT"": 450.0, ""GGA"": ""Pe"", ""IBRION"": 2, ""ISIF"": 2, ""ISMEAR"": 1, ""ISPIN"": 1, ""ISTART"": 0, ""KPAR"": 4, ""LORBIT"": 10, ""LPLANE"": false, ""LREAL"": ""Auto"", ""NCORE"": 4, ""NELM"": 120, ""NSIM"": 1, ""NSW"": 60, ""PREC"": ""Accurate"", ""SIGMA"": 0.2, ""SYSTEM"": ""V-44-d-4.19""}",V-44-d-4.19,450.0,1,1,0.2,Pe,"{""Ti"": 4.0, ""V"": 5.0}",257.0,,V
Segregation-1sol-T2-V-V-45-d-4.19,Segregation-1sol,Segregation-1sol/T2/V/V-45-d-4.19,/mnt/e/Onedrive/TiGB-Project/Data/Segregation-1sol/T2/V/V-45-d-4.19,CONTCAR,64,Ti63 V1,1105.3570633764582,4.606789070474978,-495.87226886,-7.7480042009375,"{""ALGO"": ""Normal"", ""AMIX"": 0.01, ""BMIX"": 0.0001, ""EDIFF"": 0.0001, ""EDIFFG"": -0.02, ""ENCUT"": 450.0, ""GGA"": ""Pe"", ""IBRION"": 2, ""ISIF"": 2, ""ISMEAR"": 1, ""ISPIN"": 1, ""ISTART"": 0, ""KPAR"": 4, ""LORBIT"": 10, ""LPLANE"": false, ""LREAL"": ""Auto"", ""NCORE"": 4, ""NELM"": 120, ""NSIM"": 1, ""NSW"": 60, ""PREC"": ""Accurate"", ""SIGMA"": 0.2, ""SYSTEM"": ""V-45-d-4.19""}",V-45-d-4.19,450.0,1,1,0.2,Pe,"{""Ti"": 4.0, ""V"": 5.0}",257.0,,V
Segregation-1sol-T2-V-V-46-d-4.86,Segregation-1sol,Segregation-1sol/T2/V/V-46-d-4.86,/mnt/e/Onedrive/TiGB-Project/Data/Segregation-1sol/T2/V/V-46-d-4.86,CONTCAR,64,Ti63 V1,1105.3570633764582,4.606789070474978,-495.86764696,-7.74793198375,"{""ALGO"": ""Fast"", ""AMIX"": 0.01, ""BMIX"": 0.0001, ""EDIFF"": 0.0001, ""EDIFFG"": -0.02, ""ENCUT"": 450.0, ""GGA"": ""Pe"", ""IBRION"": 2, ""ISIF"": 2, ""ISMEAR"": 1, ""ISPIN"": 1, ""ISTART"": 0, ""KPAR"": 4, ""LORBIT"": 10, ""LPLANE"": false, ""LREAL"": ""Auto"", ""NCORE"": 4, ""NELM"": 120, ""NSIM"": 1, ""NSW"": 60, ""PREC"": ""Accurate"", ""SIGMA"": 0.2, ""SYSTEM"": ""V-46-d-4.86""}",V-46-d-4.86,450.0,1,1,0.2,Pe,"{""Ti"": 4.0, ""V"": 5.0}",257.0,,V
Segregation-1sol-T2-V-V-47-d-4.86,Segregation-1sol,Segregation-1sol/T2/V/V-47-d-4.86,/mnt/e/Onedrive/TiGB-Project/Data/Segregation-1sol/T2/V/V-47-d-4.86,CONTCAR,64,Ti63 V1,1105.3570633764582,4.606789070474978,-495.97081534,-7.7495439896875,"{""ALGO"": ""Normal"", ""AMIX"": 0.01, ""BMIX"": 0.0001, ""EDIFF"": 0.0001, ""EDIFFG"": -0.02, ""ENCUT"": 450.0, ""GGA"": ""Pe"", ""IBRION"": 2, ""ISIF"": 2, ""ISMEAR"": 1, ""ISPIN"": 1, ""ISTART"": 0, ""KPAR"": 4, ""LORBIT"": 10, ""LPLANE"": false, ""LREAL"": ""Auto"", ""NCORE"": 4, ""NELM"": 120, ""NSIM"": 1, ""NSW"": 60, ""PREC"": ""Accurate"", ""SIGMA"": 0.2, ""SYSTEM"": ""V-47-d-4.86""}",V-47-d-4.86,450.0,1,1,0.2,Pe,"{""Ti"": 4.0, ""V"": 5.0}",257.0,"vasprun:no element found: line 6417, column 0",V
Segregation-1sol-T2-V-V-48-d-5.58,Segregation-1sol,Segregation-1sol/T2/V/V-48-d-5.58,/mnt/e/Onedrive/TiGB-Project/Data/Segregation-1sol/T2/V/V-48-d-5.58,CONTCAR,64,Ti63 V1,1105.3570633764582,4.606789070474978,-495.84501847,-7.74757841359375,"{""ALGO"": ""Fast"", ""AMIX"": 0.01, ""BMIX"": 0.0001, ""EDIFF"": 0.0001, ""EDIFFG"": -0.02, ""ENCUT"": 450.0, ""GGA"": ""Pe"", ""IBRION"": 2, ""ISIF"": 2, ""ISMEAR"": 1, ""ISPIN"": 1, ""ISTART"": 0, ""KPAR"": 4, ""LORBIT"": 10, ""LPLANE"": false, ""LREAL"": ""Auto"", ""NCORE"": 4, ""NELM"": 120, ""NSIM"": 1, ""NSW"": 60, ""PREC"": ""Accurate"", ""SIGMA"": 0.2, ""SYSTEM"": ""V-48-d-5.58""}",V-48-d-5.58,450.0,1,1,0.2,Pe,"{""Ti"": 4.0, ""V"": 5.0}",257.0,,V
Segregation-1sol-T2-V-V-49-d-5.58,Segregation-1sol,Segregation-1sol/T2/V/V-49-d-5.58,/mnt/e/Onedrive/TiGB-Project/Data/Segregation-1sol/T2/V/V-49-d-5.58,CONTCAR,64,Ti63 V1,1105.3570633764582,4.606789070474978,-495.84505422,-7.7475789721875,"{""ALGO"": ""Normal"", ""AMIX"": 0.01, ""BMIX"": 0.0001, ""EDIFF"": 0.0001, ""EDIFFG"": -0.02, ""ENCUT"": 450.0, ""GGA"": ""Pe"", ""IBRION"": 2, ""ISIF"": 2, ""ISMEAR"": 1, ""ISPIN"": 1, ""ISTART"": 0, ""KPAR"": 4, ""LORBIT"": 10, ""LPLANE"": false, ""LREAL"": ""Auto"", ""NCORE"": 4, ""NELM"": 120, ""NSIM"": 1, ""NSW"": 60, ""PREC"": ""Accurate"", ""SIGMA"": 0.2, ""SYSTEM"": ""V-49-d-5.58""}",V-49-d-5.58,450.0,1,1,0.2,Pe,"{""Ti"": 4.0, ""V"": 5.0}",257.0,,V
Segregation-1sol-T2-V-V-50-d-6.29,Segregation-1sol,Segregation-1sol/T2/V/V-50-d-6.29,/mnt/e/Onedrive/TiGB-Project/Data/Segregation-1sol/T2/V/V-50-d-6.29,CONTCAR,64,Ti63 V1,1105.3570633764582,4.606789070474978,-495.97612857,-7.74962700890625,"{""ALGO"": ""Fast"", ""AMIX"": 0.01, ""BMIX"": 0.0001, ""EDIFF"": 0.0001, ""EDIFFG"": -0.02, ""ENCUT"": 450.0, ""GGA"": ""Pe"", ""IBRION"": 2, ""ISIF"": 2, ""ISMEAR"": 1, ""ISPIN"": 1, ""ISTART"": 0, ""KPAR"": 4, ""LORBIT"": 10, ""LPLANE"": false, ""LREAL"": ""Auto"", ""NCORE"": 4, ""NELM"": 120, ""NSIM"": 1, ""NSW"": 60, ""PREC"": ""Accurate"", ""SIGMA"": 0.2, ""SYSTEM"": ""V-50-d-6.29""}",V-50-d-6.29,450.0,1,1,0.2,Pe,"{""Ti"": 4.0, ""V"": 5.0}",257.0,,V
Segregation-1sol-T2-V-V-51-d-6.29,Segregation-1sol,Segregation-1sol/T2/V/V-51-d-6.29,/mnt/e/Onedrive/TiGB-Project/Data/Segregation-1sol/T2/V/V-51-d-6.29,CONTCAR,64,Ti63 V1,1105.3570633764582,4.606789070474978,-495.97670385,-7.74963599765625,"{""ALGO"": ""Normal"", ""AMIX"": 0.01, ""BMIX"": 0.0001, ""EDIFF"": 0.0001, ""EDIFFG"": -0.02, ""ENCUT"": 450.0, ""GGA"": ""Pe"", ""IBRION"": 2, ""ISIF"": 2, ""ISMEAR"": 1, ""ISPIN"": 1, ""ISTART"": 0, ""KPAR"": 4, ""LORBIT"": 10, ""LPLANE"": false, ""LREAL"": ""Auto"", ""NCORE"": 4, ""NELM"": 120, ""NSIM"": 1, ""NSW"": 60, ""PREC"": ""Accurate"", ""SIGMA"": 0.2, ""SYSTEM"": ""V-51-d-6.29""}",V-51-d-6.29,450.0,1,1,0.2,Pe,"{""Ti"": 4.0, ""V"": 5.0}",257.0,,V
Segregation-1sol-T2-V-V-52-d-6.97,Segregation-1sol,Segregation-1sol/T2/V/V-52-d-6.97,/mnt/e/Onedrive/TiGB-Project/Data/Segregation-1sol/T2/V/V-52-d-6.97,CONTCAR,64,Ti63 V1,1105.3570633764582,4.606789070474978,-495.87056199,-7.74797753109375,"{""ALGO"": ""Fast"", ""AMIX"": 0.01, ""BMIX"": 0.0001, ""EDIFF"": 0.0001, ""EDIFFG"": -0.02, ""ENCUT"": 450.0, ""GGA"": ""Pe"", ""IBRION"": 2, ""ISIF"": 2, ""ISMEAR"": 1, ""ISPIN"": 1, ""ISTART"": 0, ""KPAR"": 4, ""LORBIT"": 10, ""LPLANE"": false, ""LREAL"": ""Auto"", ""NCORE"": 4, ""NELM"": 120, ""NSIM"": 1, ""NSW"": 60, ""PREC"": ""Accurate"", ""SIGMA"": 0.2, ""SYSTEM"": ""V-52-d-6.97""}",V-52-d-6.97,450.0,1,1,0.2,Pe,"{""Ti"": 4.0, ""V"": 5.0}",257.0,,V
Segregation-1sol-T2-V-V-53-d-6.97,Segregation-1sol,Segregation-1sol/T2/V/V-53-d-6.97,/mnt/e/Onedrive/TiGB-Project/Data/Segregation-1sol/T2/V/V-53-d-6.97,CONTCAR,64,Ti63 V1,1105.3570633764582,4.606789070474978,-495.87342805,-7.74802231328125,"{""ALGO"": ""Normal"", ""AMIX"": 0.01, ""BMIX"": 0.0001, ""EDIFF"": 0.0001, ""EDIFFG"": -0.02, ""ENCUT"": 450.0, ""GGA"": ""Pe"", ""IBRION"": 2, ""ISIF"": 2, ""ISMEAR"": 1, ""ISPIN"": 1, ""ISTART"": 0, ""KPAR"": 4, ""LORBIT"": 10, ""LPLANE"": false, ""LREAL"": ""Auto"", ""NCORE"": 4, ""NELM"": 120, ""NSIM"": 1, ""NSW"": 60, ""PREC"": ""Accurate"", ""SIGMA"": 0.2, ""SYSTEM"": ""V-53-d-6.97""}",V-53-d-6.97,450.0,1,1,0.2,Pe,"{""Ti"": 4.0, ""V"": 5.0}",257.0,,V
Segregation-1sol-addvac-C1-Al-Al-26-d-0.00,Segregation-1sol-addvac,Segregation-1sol-addvac/C1/Al/Al-26-d-0.00,/mnt/e/Onedrive/TiGB-Project/Data/Segregation-1sol-addvac/C1/Al/Al-26-d-0.00,CONTCAR,52,Ti51 Al1,1362.6127680076254,3.007853881473104,-392.17823673,-7.541889167884615,"{""ALGO"": ""Fast"", ""AMIX"": 0.01, ""BMIX"": 0.0001, ""EDIFF"": 0.0001, ""EDIFFG"": -0.02, ""ENCUT"": 450.0, ""GGA"": ""Pe"", ""IBRION"": 2, ""ISIF"": 2, ""ISMEAR"": 1, ""ISPIN"": 1, ""ISTART"": 0, ""KPAR"": 4, ""LORBIT"": 10, ""LPLANE"": false, ""LREAL"": ""Auto"", ""NCORE"": 4, ""NELM"": 120, ""NSIM"": 1, ""NSW"": 60, ""PREC"": ""Accurate"", ""SIGMA"": 0.2, ""SYSTEM"": ""Al-26-d-0.00""}",Al-26-d-0.00,450.0,1,1,0.2,Pe,"{""Ti"": 4.0, ""Al"": 3.0}",207.0,,Al
Segregation-1sol-addvac-C1-Al-Al-28-d-1.38,Segregation-1sol-addvac,Segregation-1sol-addvac/C1/Al/Al-28-d-1.38,/mnt/e/Onedrive/TiGB-Project/Data/Segregation-1sol-addvac/C1/Al/Al-28-d-1.38,CONTCAR,52,Ti51 Al1,1362.6127680076254,3.007853881473104,-392.7756041,-7.553377001923077,"{""ALGO"": ""Fast"", ""AMIX"": 0.01, ""BMIX"": 0.0001, ""EDIFF"": 0.0001, ""EDIFFG"": -0.02, ""ENCUT"": 450.0, ""GGA"": ""Pe"", ""IBRION"": 2, ""ISIF"": 2, ""ISMEAR"": 1, ""ISPIN"": 1, ""ISTART"": 0, ""KPAR"": 4, ""LORBIT"": 10, ""LPLANE"": false, ""LREAL"": ""Auto"", ""NCORE"": 4, ""NELM"": 120, ""NSIM"": 1, ""NSW"": 60, ""PREC"": ""Accurate"", ""SIGMA"": 0.2, ""SYSTEM"": ""Al-28-d-1.38""}",Al-28-d-1.38,450.0,1,1,0.2,Pe,"{""Ti"": 4.0, ""Al"": 3.0}",207.0,,Al
Segregation-1sol-addvac-C1-Al-Al-29-d-2.59,Segregation-1sol-addvac,Segregation-1sol-addvac/C1/Al/Al-29-d-2.59,/mnt/e/Onedrive/TiGB-Project/Data/Segregation-1sol-addvac/C1/Al/Al-29-d-2.59,CONTCAR,52,Ti51 Al1,1362.6127680076254,3.007853881473104,-392.46585005,-7.547420193269231,"{""ALGO"": ""Fast"", ""AMIX"": 0.01, ""BMIX"": 0.0001, ""EDIFF"": 0.0001, ""EDIFFG"": -0.02, ""ENCUT"": 450.0, ""GGA"": ""Pe"", ""IBRION"": 2, ""ISIF"": 2, ""ISMEAR"": 1, ""ISPIN"": 1, ""ISTART"": 0, ""KPAR"": 4, ""LORBIT"": 10, ""LPLANE"": false, ""LREAL"": ""Auto"", ""NCORE"": 4, ""NELM"": 120, ""NSIM"": 1, ""NSW"": 60, ""PREC"": ""Accurate"", ""SIGMA"": 0.2, ""SYSTEM"": ""Al-29-d-2.59""}",Al-29-d-2.59,450.0,1,1,0.2,Pe,"{""Ti"": 4.0, ""Al"": 3.0}",207.0,,Al
Segregation-1sol-addvac-C1-Al-Al-30-d-2.59,Segregation-1sol-addvac,Segregation-1sol-addvac/C1/Al/Al-30-d-2.59,/mnt/e/Onedrive/TiGB-Project/Data/Segregation-1sol-addvac/C1/Al/Al-30-d-2.59,CONTCAR,52,Ti51 Al1,1362.6127680076254,3.007853881473104,-392.4542341,-7.547196809615385,"{""ALGO"": ""Fast"", ""AMIX"": 0.01, ""BMIX"": 0.0001, ""EDIFF"": 0.0001, ""EDIFFG"": -0.02, ""ENCUT"": 450.0, ""GGA"": ""Pe"", ""IBRION"": 2, ""ISIF"": 2, ""ISMEAR"": 1, ""ISPIN"": 1, ""ISTART"": 0, ""KPAR"": 4, ""LORBIT"": 10, ""LPLANE"": false, ""LREAL"": ""Auto"", ""NCORE"": 4, ""NELM"": 120, ""NSIM"": 1, ""NSW"": 60, ""PREC"": ""Accurate"", ""SIGMA"": 0.2, ""SYSTEM"": ""Al-30-d-2.59""}",Al-30-d-2.59,450.0,1,1,0.2,Pe,"{""Ti"": 4.0, ""Al"": 3.0}",207.0,,Al
Segregation-1sol-addvac-C1-Al-Al-32-d-3.83,Segregation-1sol-addvac,Segregation-1sol-addvac/C1/Al/Al-32-d-3.83,/mnt/e/Onedrive/TiGB-Project/Data/Segregation-1sol-addvac/C1/Al/Al-32-d-3.83,CONTCAR,52,Ti51 Al1,1362.6127680076254,3.007853881473104,-392.37738882,-7.545719015769231,"{""ALGO"": ""Fast"", ""AMIX"": 0.01, ""BMIX"": 0.0001, ""EDIFF"": 0.0001, ""EDIFFG"": -0.02, ""ENCUT"": 450.0, ""GGA"": ""Pe"", ""IBRION"": 2, ""ISIF"": 2, ""ISMEAR"": 1, ""ISPIN"": 1, ""ISTART"": 0, ""KPAR"": 4, ""LORBIT"": 10, ""LPLANE"": false, ""LREAL"": ""Auto"", ""NCORE"": 4, ""NELM"": 120, ""NSIM"": 1, ""NSW"": 60, ""PREC"": ""Accurate"", ""SIGMA"": 0.2, ""SYSTEM"": ""Al-32-d-3.83""}",Al-32-d-3.83,450.0,1,1,0.2,Pe,"{""Ti"": 4.0, ""Al"": 3.0}",207.0,"vasprun:no element found: line 8557, column 0",Al