job_name,top_level,relpath,path,structure_file,num_atoms,formula,volume,density,energy_eV,energy_per_atom_eV,incar,incar_system,incar_encut,incar_ispin,incar_ismear,incar_sigma,incar_gga,potcar_nelectrons_map,potcar_total_nelectrons,parse_errors,solute
BondOrder-VacuumGB-T1g-Al-Al-42-d-4.72,BondOrder-VacuumGB,BondOrder-VacuumGB/T1g/Al/Al-42-d-4.72,/mnt/e/Onedrive/TiGB-Project/Data/BondOrder-VacuumGB/T1g/Al/Al-42-d-4.72,CONTCAR,64,Ti63 Al1,1755.8344326646197,2.8774697047449447,-482.17243266,-7.5339442603125,"{""ALGO"": ""Fast"", ""AMIX"": 0.01, ""BMIX"": 0.0001, ""EDIFF"": 1e-05, ""EDIFFG"": -0.01, ""ENCUT"": 450.0, ""GGA"": ""Pe"", ""IBRION"": 2, ""ISIF"": 2, ""ISMEAR"": 1, ""ISPIN"": 1, ""ISTART"": 0, ""KPAR"": 1, ""LAECHG"": true, ""LCHARG"": true, ""LORBIT"": 10, ""LPLANE"": false, ""LREAL"": ""Auto"", ""NCORE"": 4, ""NELM"": 300, ""NSIM"": 1, ""NSW"": 2, ""PREC"": ""Accurate"", ""SIGMA"": 0.2, ""SYSTEM"": ""Al-42-d-4.72""}",Al-42-d-4.72,450.0,1,1,0.2,Pe,"{""Ti"": 4.0, ""Al"": 3.0}",255.0,,Al
BondOrder-VacuumGB-T1g-Al-Al-43-d-4.72,BondOrder-VacuumGB,BondOrder-VacuumGB/T1g/Al/Al-43-d-4.72,/mnt/e/Onedrive/TiGB-Project/Data/BondOrder-VacuumGB/T1g/Al/Al-43-d-4.72,CONTCAR,64,Ti63 Al1,1755.8344326646197,2.8774697047449447,-482.16279439,-7.53379366234375,"{""ALGO"": ""Fast"", ""AMIX"": 0.01, ""BMIX"": 0.0001, ""EDIFF"": 1e-05, ""EDIFFG"": -0.01, ""ENCUT"": 450.0, ""GGA"": ""Pe"", ""IBRION"": 2, ""ISIF"": 2, ""ISMEAR"": 1, ""ISPIN"": 1, ""ISTART"": 0, ""KPAR"": 1, ""LAECHG"": true, ""LCHARG"": true, ""LORBIT"": 10, ""LPLANE"": false, ""LREAL"": ""Auto"", ""NCORE"": 4, ""NELM"": 300, ""NSIM"": 1, ""NSW"": 2, ""PREC"": ""Accurate"", ""SIGMA"": 0.2, ""SYSTEM"": ""Al-43-d-4.72""}",Al-43-d-4.72,450.0,1,1,0.2,Pe,"{""Ti"": 4.0, ""Al"": 3.0}",255.0,,Al
BondOrder-VacuumGB-T1g-Al-Al-44-d-5.32,BondOrder-VacuumGB,BondOrder-VacuumGB/T1g/Al/Al-44-d-5.32,/mnt/e/Onedrive/TiGB-Project/Data/BondOrder-VacuumGB/T1g/Al/Al-44-d-5.32,CONTCAR,64,Ti63 Al1,1755.8344326646197,2.8774697047449447,-482.10185759,-7.53284152484375,"{""ALGO"": ""Fast"", ""AMIX"": 0.01, ""BMIX"": 0.0001, ""EDIFF"": 1e-05, ""EDIFFG"": -0.01, ""ENCUT"": 450.0, ""GGA"": ""Pe"", ""IBRION"": 2, ""ISIF"": 2, ""ISMEAR"": 1, ""ISPIN"": 1, ""ISTART"": 0, ""KPAR"": 1, ""LAECHG"": true, ""LCHARG"": true, ""LORBIT"": 10, ""LPLANE"": false, ""LREAL"": ""Auto"", ""NCORE"": 4, ""NELM"": 300, ""NSIM"": 1, ""NSW"": 2, ""PREC"": ""Accurate"", ""SIGMA"": 0.2, ""SYSTEM"": ""Al-44-d-5.32""}",Al-44-d-5.32,450.0,1,1,0.2,Pe,"{""Ti"": 4.0, ""Al"": 3.0}",255.0,,Al
BondOrder-VacuumGB-T1g-Al-Al-45-d-5.32,BondOrder-VacuumGB,BondOrder-VacuumGB/T1g/Al/Al-45-d-5.32,/mnt/e/Onedrive/TiGB-Project/Data/BondOrder-VacuumGB/T1g/Al/Al-45-d-5.32,CONTCAR,64,Ti63 Al1,1755.8344326646197,2.8774697047449447,-482.10133117,-7.53283329953125,"{""ALGO"": ""Fast"", ""AMIX"": 0.01, ""BMIX"": 0.0001, ""EDIFF"": 1e-05, ""EDIFFG"": -0.01, ""ENCUT"": 450.0, ""GGA"": ""Pe"", ""IBRION"": 2, ""ISIF"": 2, ""ISMEAR"": 1, ""ISPIN"": 1, ""ISTART"": 0, ""KPAR"": 1, ""LAECHG"": true, ""LCHARG"": true, ""LORBIT"": 10, ""LPLANE"": false, ""LREAL"": ""Auto"", ""NCORE"": 4, ""NELM"": 300, ""NSIM"": 1, ""NSW"": 2, ""PREC"": ""Accurate"", ""SIGMA"": 0.2, ""SYSTEM"": ""Al-45-d-5.32""}",Al-45-d-5.32,450.0,1,1,0.2,Pe,"{""Ti"": 4.0, ""Al"": 3.0}",255.0,,Al
BondOrder-VacuumGB-T1g-Al-Al-46-d-6.48,BondOrder-VacuumGB,BondOrder-VacuumGB/T1g/Al/Al-46-d-6.48,/mnt/e/Onedrive/TiGB-Project/Data/BondOrder-VacuumGB/T1g/Al/Al-46-d-6.48,CONTCAR,64,Ti63 Al1,1755.8344326646197,2.8774697047449447,-482.122228,-7.5331598125,"{""ALGO"": ""Fast"", ""AMIX"": 0.01, ""BMIX"": 0.0001, ""EDIFF"": 1e-05, ""EDIFFG"": -0.01, ""ENCUT"": 450.0, ""GGA"": ""Pe"", ""IBRION"": 2, ""ISIF"": 2, ""ISMEAR"": 1, ""ISPIN"": 1, ""ISTART"": 0, ""KPAR"": 1, ""LAECHG"": true, ""LCHARG"": true, ""LORBIT"": 10, ""LPLANE"": false, ""LREAL"": ""Auto"", ""NCORE"": 4, ""NELM"": 300, ""NSIM"": 1, ""NSW"": 2, ""PREC"": ""Accurate"", ""SIGMA"": 0.2, ""SYSTEM"": ""Al-46-d-6.48""}",Al-46-d-6.48,450.0,1,1,0.2,Pe,"{""Ti"": 4.0, ""Al"": 3.0}",255.0,,Al
BondOrder-VacuumGB-T1g-Al-Al-47-d-6.48,BondOrder-VacuumGB,BondOrder-VacuumGB/T1g/Al/Al-47-d-6.48,/mnt/e/Onedrive/TiGB-Project/Data/BondOrder-VacuumGB/T1g/Al/Al-47-d-6.48,CONTCAR,64,Ti63 Al1,1755.8344326646197,2.8774697047449447,-482.12438904,-7.53319357875,"{""ALGO"": ""Fast"", ""AMIX"": 0.01, ""BMIX"": 0.0001, ""EDIFF"": 1e-05, ""EDIFFG"": -0.01, ""ENCUT"": 450.0, ""GGA"": ""Pe"", ""IBRION"": 2, ""ISIF"": 2, ""ISMEAR"": 1, ""ISPIN"": 1, ""ISTART"": 0, ""KPAR"": 1, ""LAECHG"": true, ""LCHARG"": true, ""LORBIT"": 10, ""LPLANE"": false, ""LREAL"": ""Auto"", ""NCORE"": 4, ""NELM"": 300, ""NSIM"": 1, ""NSW"": 2, ""PREC"": ""Accurate"", ""SIGMA"": 0.2, ""SYSTEM"": ""Al-47-d-6.48""}",Al-47-d-6.48,450.0,1,1,0.2,Pe,"{""Ti"": 4.0, ""Al"": 3.0}",255.0,,Al
BondOrder-VacuumGB-T1g-Al-Al-48-d-6.96,BondOrder-VacuumGB,BondOrder-VacuumGB/T1g/Al/Al-48-d-6.96,/mnt/e/Onedrive/TiGB-Project/Data/BondOrder-VacuumGB/T1g/Al/Al-48-d-6.96,CONTCAR,64,Ti63 Al1,1755.8344326646197,2.8774697047449447,-482.05069383,-7.53204209109375,"{""ALGO"": ""Fast"", ""AMIX"": 0.01, ""BMIX"": 0.0001, ""EDIFF"": 1e-05, ""EDIFFG"": -0.01, ""ENCUT"": 450.0, ""GGA"": ""Pe"", ""IBRION"": 2, ""ISIF"": 2, ""ISMEAR"": 1, ""ISPIN"": 1, ""ISTART"": 0, ""KPAR"": 1, ""LAECHG"": true, ""LCHARG"": true, ""LORBIT"": 10, ""LPLANE"": false, ""LREAL"": ""Auto"", ""NCORE"": 4, ""NELM"": 300, ""NSIM"": 1, ""NSW"": 2, ""PREC"": ""Accurate"", ""SIGMA"": 0.2, ""SYSTEM"": ""Al-48-d-6.96""}",Al-48-d-6.96,450.0,1,1,0.2,Pe,"{""Ti"": 4.0, ""Al"": 3.0}",255.0,,Al
BondOrder-VacuumGB-T1g-Al-Al-49-d-6.96,BondOrder-VacuumGB,BondOrder-VacuumGB/T1g/Al/Al-49-d-6.96,/mnt/e/Onedrive/TiGB-Project/Data/BondOrder-VacuumGB/T1g/Al/Al-49-d-6.96,CONTCAR,64,Ti63 Al1,1755.8344326646197,2.8774697047449447,-482.04785604,-7.531997750625,"{""ALGO"": ""Fast"", ""AMIX"": 0.01, ""BMIX"": 0.0001, ""EDIFF"": 1e-05, ""EDIFFG"": -0.01, ""ENCUT"": 450.0, ""GGA"": ""Pe"", ""IBRION"": 2, ""ISIF"": 2, ""ISMEAR"": 1, ""ISPIN"": 1, ""ISTART"": 0, ""KPAR"": 1, ""LAECHG"": true, ""LCHARG"": true, ""LORBIT"": 10, ""LPLANE"": false, ""LREAL"": ""Auto"", ""NCORE"": 4, ""NELM"": 300, ""NSIM"": 1, ""NSW"": 2, ""PREC"": ""Accurate"", ""SIGMA"": 0.2, ""SYSTEM"": ""Al-49-d-6.96""}",Al-49-d-6.96,450.0,1,1,0.2,Pe,"{""Ti"": 4.0, ""Al"": 3.0}",255.0,,Al
BondOrder-VacuumGB-T1g-V-V-30-d-0.22,BondOrder-VacuumGB,BondOrder-VacuumGB/T1g/V/V-30-d-0.22,/mnt/e/Onedrive/TiGB-Project/Data/BondOrder-VacuumGB/T1g/V/V-30-d-0.22,CONTCAR,64,Ti63 V1,1755.8344326646197,2.900129274038238,-485.81961691,-7.59093151421875,"{""ALGO"": ""Fast"", ""AMIX"": 0.01, ""BMIX"": 0.0001, ""EDIFF"": 1e-05, ""EDIFFG"": -0.01, ""ENCUT"": 450.0, ""GGA"": ""Pe"", ""IBRION"": 2, ""ISIF"": 2, ""ISMEAR"": 1, ""ISPIN"": 1, ""ISTART"": 0, ""KPAR"": 1, ""LAECHG"": true, ""LCHARG"": true, ""LORBIT"": 10, ""LPLANE"": false, ""LREAL"": ""Auto"", ""NCORE"": 4, ""NELM"": 300, ""NSIM"": 1, ""NSW"": 2, ""PREC"": ""Accurate"", ""SIGMA"": 0.2, ""SYSTEM"": ""V-30-d-0.22""}",V-30-d-0.22,450.0,1,1,0.2,Pe,"{""Ti"": 4.0, ""V"": 5.0}",257.0,,V
BondOrder-VacuumGB-T1g-V-V-31-d-0.22,BondOrder-VacuumGB,BondOrder-VacuumGB/T1g/V/V-31-d-0.22,/mnt/e/Onedrive/TiGB-Project/Data/BondOrder-VacuumGB/T1g/V/V-31-d-0.22,CONTCAR,64,Ti63 V1,1755.8344326646197,2.900129274038238,-485.81640407,-7.59088131359375,"{""ALGO"": ""Fast"", ""AMIX"": 0.01, ""BMIX"": 0.0001, ""EDIFF"": 1e-05, ""EDIFFG"": -0.01, ""ENCUT"": 450.0, ""GGA"": ""Pe"", ""IBRION"": 2, ""ISIF"": 2, ""ISMEAR"": 1, ""ISPIN"": 1, ""ISTART"": 0, ""KPAR"": 1, ""LAECHG"": true, ""LCHARG"": true, ""LORBIT"": 10, ""LPLANE"": false, ""LREAL"": ""Auto"", ""NCORE"": 4, ""NELM"": 300, ""NSIM"": 1, ""NSW"": 2, ""PREC"": ""Accurate"", ""SIGMA"": 0.2, ""SYSTEM"": ""V-31-d-0.22""}",V-31-d-0.22,450.0,1,1,0.2,Pe,"{""Ti"": 4.0, ""V"": 5.0}",257.0,,V
BondOrder-VacuumGB-T1g-V-V-32-d-0.00,BondOrder-VacuumGB,BondOrder-VacuumGB/T1g/V/V-32-d-0.00,/mnt/e/Onedrive/TiGB-Project/Data/BondOrder-VacuumGB/T1g/V/V-32-d-0.00,CONTCAR,64,Ti63 V1,1755.8344326646197,2.900129274038238,-486.16226225,-7.59628534765625,"{""ALGO"": ""Fast"", ""AMIX"": 0.01, ""BMIX"": 0.0001, ""EDIFF"": 1e-05, ""EDIFFG"": -0.01, ""ENCUT"": 450.0, ""GGA"": ""Pe"", ""IBRION"": 2, ""ISIF"": 2, ""ISMEAR"": 1, ""ISPIN"": 1, ""ISTART"": 0, ""KPAR"": 1, ""LAECHG"": true, ""LCHARG"": true, ""LORBIT"": 10, ""LPLANE"": false, ""LREAL"": ""Auto"", ""NCORE"": 4, ""NELM"": 300, ""NSIM"": 1, ""NSW"": 2, ""PREC"": ""Accurate"", ""SIGMA"": 0.2, ""SYSTEM"": ""V-32-d-0.00""}",V-32-d-0.00,450.0,1,1,0.2,Pe,"{""Ti"": 4.0, ""V"": 5.0}",257.0,,V
BondOrder-VacuumGB-T1g-V-V-33-d-0.00,BondOrder-VacuumGB,BondOrder-VacuumGB/T1g/V/V-33-d-0.00,/mnt/e/Onedrive/TiGB-Project/Data/BondOrder-VacuumGB/T1g/V/V-33-d-0.00,CONTCAR,64,Ti63 V1,1755.8344326646197,2.900129274038238,-486.15060759,-7.59610324359375,"{""ALGO"": ""Fast"", ""AMIX"": 0.01, ""BMIX"": 0.0001, ""EDIFF"": 1e-05, ""EDIFFG"": -0.01, ""ENCUT"": 450.0, ""GGA"": ""Pe"", ""IBRION"": 2, ""ISIF"": 2, ""ISMEAR"": 1, ""ISPIN"": 1, ""ISTART"": 0, ""KPAR"": 1, ""LAECHG"": true, ""LCHARG"": true, ""LORBIT"": 10, ""LPLANE"": false, ""LREAL"": ""Auto"", ""NCORE"": 4, ""NELM"": 300, ""NSIM"": 1, ""NSW"": 2, ""PREC"": ""Accurate"", ""SIGMA"": 0.2, ""SYSTEM"": ""V-33-d-0.00""}",V-33-d-0.00,450.0,1,1,0.2,Pe,"{""Ti"": 4.0, ""V"": 5.0}",257.0,,V
BondOrder-VacuumGB-T1g-V-V-34-d-1.29,BondOrder-VacuumGB,BondOrder-VacuumGB/T1g/V/V-34-d-1.29,/mnt/e/Onedrive/TiGB-Project/Data/BondOrder-VacuumGB/T1g/V/V-34-d-1.29,CONTCAR,64,Ti63 V1,1755.8344326646197,2.900129274038238,-486.04971453,-7.59452678953125,"{""ALGO"": ""Fast"", ""AMIX"": 0.01, ""BMIX"": 0.0001, ""EDIFF"": 1e-05, ""EDIFFG"": -0.01, ""ENCUT"": 450.0, ""GGA"": ""Pe"", ""IBRION"": 2, ""ISIF"": 2, ""ISMEAR"": 1, ""ISPIN"": 1, ""ISTART"": 0, ""KPAR"": 1, ""LAECHG"": true, ""LCHARG"": true, ""LORBIT"": 10, ""LPLANE"": false, ""LREAL"": ""Auto"", ""NCORE"": 4, ""NELM"": 300, ""NSIM"": 1, ""NSW"": 2, ""PREC"": ""Accurate"", ""SIGMA"": 0.2, ""SYSTEM"": ""V-34-d-1.29""}",V-34-d-1.29,450.0,1,1,0.2,Pe,"{""Ti"": 4.0, ""V"": 5.0}",257.0,,V
BondOrder-VacuumGB-T1g-V-V-35-d-1.29,BondOrder-VacuumGB,BondOrder-VacuumGB/T1g/V/V-35-d-1.29,/mnt/e/Onedrive/TiGB-Project/Data/BondOrder-VacuumGB/T1g/V/V-35-d-1.29,CONTCAR,64,Ti63 V1,1755.8344326646197,2.900129274038238,-486.05672753,-7.59463636765625,"{""ALGO"": ""Fast"", ""AMIX"": 0.01, ""BMIX"": 0.0001, ""EDIFF"": 1e-05, ""EDIFFG"": -0.01, ""ENCUT"": 450.0, ""GGA"": ""Pe"", ""IBRION"": 2, ""ISIF"": 2, ""ISMEAR"": 1, ""ISPIN"": 1, ""ISTART"": 0, ""KPAR"": 1, ""LAECHG"": true, ""LCHARG"": true, ""LORBIT"": 10, ""LPLANE"": false, ""LREAL"": ""Auto"", ""NCORE"": 4, ""NELM"": 300, ""NSIM"": 1, ""NSW"": 2, ""PREC"": ""Accurate"", ""SIGMA"": 0.2, ""SYSTEM"": ""V-35-d-1.29""}",V-35-d-1.29,450.0,1,1,0.2,Pe,"{""Ti"": 4.0, ""V"": 5.0}",257.0,,V
BondOrder-VacuumGB-T1g-V-V-36-d-1.90,BondOrder-VacuumGB,BondOrder-VacuumGB/T1g/V/V-36-d-1.90,/mnt/e/Onedrive/TiGB-Project/Data/BondOrder-VacuumGB/T1g/V/V-36-d-1.90,CONTCAR,64,Ti63 V1,1755.8344326646197,2.900129274038238,-484.43085692,-7.569232139375,"{""ALGO"": ""Fast"", ""AMIX"": 0.01, ""BMIX"": 0.0001, ""EDIFF"": 1e-05, ""EDIFFG"": -0.01, ""ENCUT"": 450.0, ""GGA"": ""Pe"", ""IBRION"": 2, ""ISIF"": 2, ""ISMEAR"": 1, ""ISPIN"": 1, ""ISTART"": 0, ""KPAR"": 1, ""LAECHG"": true, ""LCHARG"": true, ""LORBIT"": 10, ""LPLANE"": false, ""LREAL"": ""Auto"", ""NCORE"": 4, ""NELM"": 300, ""NSIM"": 1, ""NSW"": 2, ""PREC"": ""Accurate"", ""SIGMA"": 0.2, ""SYSTEM"": ""V-36-d-1.90""}",V-36-d-1.90,450.0,1,1,0.2,Pe,"{""Ti"": 4.0, ""V"": 5.0}",257.0,,V
BondOrder-VacuumGB-T1g-V-V-37-d-1.90,BondOrder-VacuumGB,BondOrder-VacuumGB/T1g/V/V-37-d-1.90,/mnt/e/Onedrive/TiGB-Project/Data/BondOrder-VacuumGB/T1g/V/V-37-d-1.90,CONTCAR,64,Ti63 V1,1755.8344326646197,2.900129274038238,-486.05084913,-7.59454451765625,"{""ALGO"": ""Fast"", ""AMIX"": 0.01, ""BMIX"": 0.0001, ""EDIFF"": 1e-05, ""EDIFFG"": -0.01, ""ENCUT"": 450.0, ""GGA"": ""Pe"", ""IBRION"": 2, ""ISIF"": 2, ""ISMEAR"": 1, ""ISPIN"": 1, ""ISTART"": 0, ""KPAR"": 1, ""LAECHG"": true, ""LCHARG"": true, ""LORBIT"": 10, ""LPLANE"": false, ""LREAL"": ""Auto"", ""NCORE"": 4, ""NELM"": 300, ""NSIM"": 1, ""NSW"": 2, ""PREC"": ""Accurate"", ""SIGMA"": 0.2, ""SYSTEM"": ""V-37-d-1.90""}",V-37-d-1.90,450.0,1,1,0.2,Pe,"{""Ti"": 4.0, ""V"": 5.0}",257.0,,V
BondOrder-VacuumGB-T1g-V-V-38-d-3.19,BondOrder-VacuumGB,BondOrder-VacuumGB/T1g/V/V-38-d-3.19,/mnt/e/Onedrive/TiGB-Project/Data/BondOrder-VacuumGB/T1g/V/V-38-d-3.19,CONTCAR,64,Ti63 V1,1755.8344326646197,2.900129274038238,-484.9758789,-7.5777481078125,"{""ALGO"": ""Fast"", ""AMIX"": 0.01, ""BMIX"": 0.0001, ""EDIFF"": 1e-05, ""EDIFFG"": -0.01, ""ENCUT"": 450.0, ""GGA"": ""Pe"", ""IBRION"": 2, ""ISIF"": 2, ""ISMEAR"": 1, ""ISPIN"": 1, ""ISTART"": 0, ""KPAR"": 1, ""LAECHG"": true, ""LCHARG"": true, ""LORBIT"": 10, ""LPLANE"": false, ""LREAL"": ""Auto"", ""NCORE"": 4, ""NELM"": 300, ""NSIM"": 1, ""NSW"": 2, ""PREC"": ""Accurate"", ""SIGMA"": 0.2, ""SYSTEM"": ""V-38-d-3.19""}",V-38-d-3.19,450.0,1,1,0.2,Pe,"{""Ti"": 4.0, ""V"": 5.0}",257.0,,V
BondOrder-VacuumGB-T1g-V-V-39-d-3.19,BondOrder-VacuumGB,BondOrder-VacuumGB/T1g/V/V-39-d-3.19,/mnt/e/Onedrive/TiGB-Project/Data/BondOrder-VacuumGB/T1g/V/V-39-d-3.19,CONTCAR,64,Ti63 V1,1755.8344326646197,2.900129274038238,-484.95574458,-7.5774335090625,"{""ALGO"": ""Fast"", ""AMIX"": 0.01, ""BMIX"": 0.0001, ""EDIFF"": 1e-05, ""EDIFFG"": -0.01, ""ENCUT"": 450.0, ""GGA"": ""Pe"", ""IBRION"": 2, ""ISIF"": 2, ""ISMEAR"": 1, ""ISPIN"": 1, ""ISTART"": 0, ""KPAR"": 1, ""LAECHG"": true, ""LCHARG"": true, ""LORBIT"": 10, ""LPLANE"": false, ""LREAL"": ""Auto"", ""NCORE"": 4, ""NELM"": 300, ""NSIM"": 1, ""NSW"": 2, ""PREC"": ""Accurate"", ""SIGMA"": 0.2, ""SYSTEM"": ""V-39-d-3.19""}",V-39-d-3.19,450.0,1,1,0.2,Pe,"{""Ti"": 4.0, ""V"": 5.0}",257.0,,V
BondOrder-VacuumGB-T1g-V-V-40-d-3.41,BondOrder-VacuumGB,BondOrder-VacuumGB/T1g/V/V-40-d-3.41,/mnt/e/Onedrive/TiGB-Project/Data/BondOrder-VacuumGB/T1g/V/V-40-d-3.41,CONTCAR,64,Ti63 V1,1755.8344326646197,2.900129274038238,-485.83111556,-7.591111180625,"{""ALGO"": ""Fast"", ""AMIX"": 0.01, ""BMIX"": 0.0001, ""EDIFF"": 1e-05, ""EDIFFG"": -0.01, ""ENCUT"": 450.0, ""GGA"": ""Pe"", ""IBRION"": 2, ""ISIF"": 2, ""ISMEAR"": 1, ""ISPIN"": 1, ""ISTART"": 0, ""KPAR"": 1, ""LAECHG"": true, ""LCHARG"": true, ""LORBIT"": 10, ""LPLANE"": false, ""LREAL"": ""Auto"", ""NCORE"": 4, ""NELM"": 300, ""NSIM"": 1, ""NSW"": 2, ""PREC"": ""Accurate"", ""SIGMA"": 0.2, ""SYSTEM"": ""V-40-d-3.41""}",V-40-d-3.41,450.0,1,1,0.2,Pe,"{""Ti"": 4.0, ""V"": 5.0}",257.0,,V
BondOrder-VacuumGB-T1g-V-V-41-d-3.41,BondOrder-VacuumGB,BondOrder-VacuumGB/T1g/V/V-41-d-3.41,/mnt/e/Onedrive/TiGB-Project/Data/BondOrder-VacuumGB/T1g/V/V-41-d-3.41,CONTCAR,64,Ti63 V1,1755.8344326646197,2.900129274038238,-485.82914993,-7.59108046765625,"{""ALGO"": ""Fast"", ""AMIX"": 0.01, ""BMIX"": 0.0001, ""EDIFF"": 1e-05, ""EDIFFG"": -0.01, ""ENCUT"": 450.0, ""GGA"": ""Pe"", ""IBRION"": 2, ""ISIF"": 2, ""ISMEAR"": 1, ""ISPIN"": 1, ""ISTART"": 0, ""KPAR"": 1, ""LAECHG"": true, ""LCHARG"": true, ""LORBIT"": 10, ""LPLANE"": false, ""LREAL"": ""Auto"", ""NCORE"": 4, ""NELM"": 300, ""NSIM"": 1, ""NSW"": 2, ""PREC"": ""Accurate"", ""SIGMA"": 0.2, ""SYSTEM"": ""V-41-d-3.41""}",V-41-d-3.41,450.0,1,1,0.2,Pe,"{""Ti"": 4.0, ""V"": 5.0}",257.0,,V
BondOrder-VacuumGB-T1g-V-V-42-d-4.72,BondOrder-VacuumGB,BondOrder-VacuumGB/T1g/V/V-42-d-4.72,/mnt/e/Onedrive/TiGB-Project/Data/BondOrder-VacuumGB/T1g/V/V-42-d-4.72,CONTCAR,64,Ti63 V1,1755.8344326646197,2.900129274038238,-484.85415597,-7.57584618703125,"{""ALGO"": ""Fast"", ""AMIX"": 0.01, ""BMIX"": 0.0001, ""EDIFF"": 1e-05, ""EDIFFG"": -0.01, ""ENCUT"": 450.0, ""GGA"": ""Pe"", ""IBRION"": 2, ""ISIF"": 2, ""ISMEAR"": 1, ""ISPIN"": 1, ""ISTART"": 0, ""KPAR"": 1, ""LAECHG"": true, ""LCHARG"": true, ""LORBIT"": 10, ""LPLANE"": false, ""LREAL"": ""Auto"", ""NCORE"": 4, ""NELM"": 300, ""NSIM"": 1, ""NSW"": 2, ""PREC"": ""Accurate"", ""SIGMA"": 0.2, ""SYSTEM"": ""V-42-d-4.72""}",V-42-d-4.72,450.0,1,1,0.2,Pe,"{""Ti"": 4.0, ""V"": 5.0}",257.0,,V
BondOrder-VacuumGB-T1g-V-V-43-d-4.72,BondOrder-VacuumGB,BondOrder-VacuumGB/T1g/V/V-43-d-4.72,/mnt/e/Onedrive/TiGB-Project/Data/BondOrder-VacuumGB/T1g/V/V-43-d-4.72,CONTCAR,64,Ti63 V1,1755.8344326646197,2.900129274038238,-484.86296996,-7.575983905625,"{""ALGO"": ""Fast"", ""AMIX"": 0.01, ""BMIX"": 0.0001, ""EDIFF"": 1e-05, ""EDIFFG"": -0.01, ""ENCUT"": 450.0, ""GGA"": ""Pe"", ""IBRION"": 2, ""ISIF"": 2, ""ISMEAR"": 1, ""ISPIN"": 1, ""ISTART"": 0, ""KPAR"": 1, ""LAECHG"": true, ""LCHARG"": true, ""LORBIT"": 10, ""LPLANE"": false, ""LREAL"": ""Auto"", ""NCORE"": 4, ""NELM"": 300, ""NSIM"": 1, ""NSW"": 2, ""PREC"": ""Accurate"", ""SIGMA"": 0.2, ""SYSTEM"": ""V-43-d-4.72""}",V-43-d-4.72,450.0,1,1,0.2,Pe,"{""Ti"": 4.0, ""V"": 5.0}",257.0,,V
BondOrder-VacuumGB-T1g-V-V-44-d-5.32,BondOrder-VacuumGB,BondOrder-VacuumGB/T1g/V/V-44-d-5.32,/mnt/e/Onedrive/TiGB-Project/Data/BondOrder-VacuumGB/T1g/V/V-44-d-5.32,CONTCAR,64,Ti63 V1,1755.8344326646197,2.900129274038238,-484.86476749,-7.57601199203125,"{""ALGO"": ""Fast"", ""AMIX"": 0.01, ""BMIX"": 0.0001, ""EDIFF"": 1e-05, ""EDIFFG"": -0.01, ""ENCUT"": 450.0, ""GGA"": ""Pe"", ""IBRION"": 2, ""ISIF"": 2, ""ISMEAR"": 1, ""ISPIN"": 1, ""ISTART"": 0, ""KPAR"": 1, ""LAECHG"": true, ""LCHARG"": true, ""LORBIT"": 10, ""LPLANE"": false, ""LREAL"": ""Auto"", ""NCORE"": 4, ""NELM"": 300, ""NSIM"": 1, ""NSW"": 2, ""PREC"": ""Accurate"", ""SIGMA"": 0.2, ""SYSTEM"": ""V-44-d-5.32""}",V-44-d-5.32,450.0,1,1,0.2,Pe,"{""Ti"": 4.0, ""V"": 5.0}",257.0,,V
BondOrder-VacuumGB-T1g-V-V-45-d-5.32,BondOrder-VacuumGB,BondOrder-VacuumGB/T1g/V/V-45-d-5.32,/mnt/e/Onedrive/TiGB-Project/Data/BondOrder-VacuumGB/T1g/V/V-45-d-5.32,CONTCAR,64,Ti63 V1,1755.8344326646197,2.900129274038238,-484.84828844,-7.575754506875,"{""ALGO"": ""Fast"", ""AMIX"": 0.01, ""BMIX"": 0.0001, ""EDIFF"": 1e-05, ""EDIFFG"": -0.01, ""ENCUT"": 450.0, ""GGA"": ""Pe"", ""IBRION"": 2, ""ISIF"": 2, ""ISMEAR"": 1, ""ISPIN"": 1, ""ISTART"": 0, ""KPAR"": 1, ""LAECHG"": true, ""LCHARG"": true, ""LORBIT"": 10, ""LPLANE"": false, ""LREAL"": ""Auto"", ""NCORE"": 4, ""NELM"": 300, ""NSIM"": 1, ""NSW"": 2, ""PREC"": ""Accurate"", ""SIGMA"": 0.2, ""SYSTEM"": ""V-45-d-5.32""}",V-45-d-5.32,450.0,1,1,0.2,Pe,"{""Ti"": 4.0, ""V"": 5.0}",257.0,,V
BondOrder-VacuumGB-T1g-V-V-46-d-6.48,BondOrder-VacuumGB,BondOrder-VacuumGB/T1g/V/V-46-d-6.48,/mnt/e/Onedrive/TiGB-Project/Data/BondOrder-VacuumGB/T1g/V/V-46-d-6.48,CONTCAR,64,Ti63 V1,1755.8344326646197,2.900129274038238,-484.97734977,-7.57777109015625,"{""ALGO"": ""Fast"", ""AMIX"": 0.01, ""BMIX"": 0.0001, ""EDIFF"": 1e-05, ""EDIFFG"": -0.01, ""ENCUT"": 450.0, ""GGA"": ""Pe"", ""IBRION"": 2, ""ISIF"": 2, ""ISMEAR"": 1, ""ISPIN"": 1, ""ISTART"": 0, ""KPAR"": 1, ""LAECHG"": true, ""LCHARG"": true, ""LORBIT"": 10, ""LPLANE"": false, ""LREAL"": ""Auto"", ""NCORE"": 4, ""NELM"": 300, ""NSIM"": 1, ""NSW"": 2, ""PREC"": ""Accurate"", ""SIGMA"": 0.2, ""SYSTEM"": ""V-46-d-6.48""}",V-46-d-6.48,450.0,1,1,0.2,Pe,"{""Ti"": 4.0, ""V"": 5.0}",257.0,,V
BondOrder-VacuumGB-T1g-V-V-47-d-6.48,BondOrder-VacuumGB,BondOrder-VacuumGB/T1g/V/V-47-d-6.48,/mnt/e/Onedrive/TiGB-Project/Data/BondOrder-VacuumGB/T1g/V/V-47-d-6.48,CONTCAR,64,Ti63 V1,1755.8344326646197,2.900129274038238,-484.97849047,-7.57778891359375,"{""ALGO"": ""Fast"", ""AMIX"": 0.01, ""BMIX"": 0.0001, ""EDIFF"": 1e-05, ""EDIFFG"": -0.01, ""ENCUT"": 450.0, ""GGA"": ""Pe"", ""IBRION"": 2, ""ISIF"": 2, ""ISMEAR"": 1, ""ISPIN"": 1, ""ISTART"": 0, ""KPAR"": 1, ""LAECHG"": true, ""LCHARG"": true, ""LORBIT"": 10, ""LPLANE"": false, ""LREAL"": ""Auto"", ""NCORE"": 4, ""NELM"": 300, ""NSIM"": 1, ""NSW"": 2, ""PREC"": ""Accurate"", ""SIGMA"": 0.2, ""SYSTEM"": ""V-47-d-6.48""}",V-47-d-6.48,450.0,1,1,0.2,Pe,"{""Ti"": 4.0, ""V"": 5.0}",257.0,,V