job_name,top_level,relpath,path,structure_file,num_atoms,formula,volume,density,energy_eV,energy_per_atom_eV,incar,incar_system,incar_encut,incar_ispin,incar_ismear,incar_sigma,incar_gga,potcar_nelectrons_map,potcar_total_nelectrons,parse_errors,solute
RGS-1sol-T1m-V-V-33-d-0.00-V-33-d-0.00-CP-0.460,RGS-1sol,RGS-1sol/T1m/V/V-33-d-0.00/V-33-d-0.00-CP-0.460,/mnt/e/Onedrive/TiGB-Project/Data/RGS-1sol/T1m/V/V-33-d-0.00/V-33-d-0.00-CP-0.460,CONTCAR,64,Ti63 V1,1756.1076583245747,2.8996780547003476,-475.99181605,-7.43737212578125,"{""ALGO"": ""Fast"", ""AMIX"": 0.01, ""BMIX"": 0.0001, ""EDIFF"": 1e-05, ""EDIFFG"": -0.01, ""ENCUT"": 450.0, ""GGA"": ""Pe"", ""IBRION"": 2, ""ISIF"": 2, ""ISMEAR"": 1, ""ISPIN"": 1, ""ISTART"": 0, ""KPAR"": 1, ""LAECHG"": true, ""LCHARG"": true, ""LORBIT"": 10, ""LPLANE"": false, ""LREAL"": ""Auto"", ""NCORE"": 4, ""NELM"": 300, ""NSIM"": 1, ""NSW"": 2, ""PREC"": ""Accurate"", ""SIGMA"": 0.2, ""SYSTEM"": ""V-33-d-0.00-cp-0.460""}",V-33-d-0.00-cp-0.460,450.0,1,1,0.2,Pe,"{""Ti"": 4.0, ""V"": 5.0}",257.0,,V
RGS-1sol-T1m-V-V-33-d-0.00-V-33-d-0.00-CP-0.490,RGS-1sol,RGS-1sol/T1m/V/V-33-d-0.00/V-33-d-0.00-CP-0.490,/mnt/e/Onedrive/TiGB-Project/Data/RGS-1sol/T1m/V/V-33-d-0.00/V-33-d-0.00-CP-0.490,CONTCAR,64,Ti63 V1,1756.1076583245747,2.8996780547003476,-475.79022536,-7.43422227125,"{""ALGO"": ""Fast"", ""AMIX"": 0.01, ""BMIX"": 0.0001, ""EDIFF"": 1e-05, ""EDIFFG"": -0.01, ""ENCUT"": 450.0, ""GGA"": ""Pe"", ""IBRION"": 2, ""ISIF"": 2, ""ISMEAR"": 1, ""ISPIN"": 1, ""ISTART"": 0, ""KPAR"": 1, ""LAECHG"": true, ""LCHARG"": true, ""LORBIT"": 10, ""LPLANE"": false, ""LREAL"": ""Auto"", ""NCORE"": 4, ""NELM"": 300, ""NSIM"": 1, ""NSW"": 2, ""PREC"": ""Accurate"", ""SIGMA"": 0.2, ""SYSTEM"": ""V-33-d-0.00-cp-0.490""}",V-33-d-0.00-cp-0.490,450.0,1,1,0.2,Pe,"{""Ti"": 4.0, ""V"": 5.0}",257.0,,V
RGS-1sol-T1m-V-V-33-d-0.00-V-33-d-0.00-CP-0.520,RGS-1sol,RGS-1sol/T1m/V/V-33-d-0.00/V-33-d-0.00-CP-0.520,/mnt/e/Onedrive/TiGB-Project/Data/RGS-1sol/T1m/V/V-33-d-0.00/V-33-d-0.00-CP-0.520,CONTCAR,64,Ti63 V1,1756.1076583245747,2.8996780547003476,-475.76710245,-7.43386097578125,"{""ALGO"": ""Fast"", ""AMIX"": 0.01, ""BMIX"": 0.0001, ""EDIFF"": 1e-05, ""EDIFFG"": -0.01, ""ENCUT"": 450.0, ""GGA"": ""Pe"", ""IBRION"": 2, ""ISIF"": 2, ""ISMEAR"": 1, ""ISPIN"": 1, ""ISTART"": 0, ""KPAR"": 1, ""LAECHG"": true, ""LCHARG"": true, ""LORBIT"": 10, ""LPLANE"": false, ""LREAL"": ""Auto"", ""NCORE"": 4, ""NELM"": 300, ""NSIM"": 1, ""NSW"": 2, ""PREC"": ""Accurate"", ""SIGMA"": 0.2, ""SYSTEM"": ""V-33-d-0.00-cp-0.520""}",V-33-d-0.00-cp-0.520,450.0,1,1,0.2,Pe,"{""Ti"": 4.0, ""V"": 5.0}",257.0,,V
RGS-1sol-T1m-V-V-33-d-0.00-V-33-d-0.00-CP-0.540,RGS-1sol,RGS-1sol/T1m/V/V-33-d-0.00/V-33-d-0.00-CP-0.540,/mnt/e/Onedrive/TiGB-Project/Data/RGS-1sol/T1m/V/V-33-d-0.00/V-33-d-0.00-CP-0.540,CONTCAR,64,Ti63 V1,1756.1076583245747,2.8996780547003476,-475.76710245,-7.43386097578125,"{""ALGO"": ""Fast"", ""AMIX"": 0.01, ""BMIX"": 0.0001, ""EDIFF"": 1e-05, ""EDIFFG"": -0.01, ""ENCUT"": 450.0, ""GGA"": ""Pe"", ""IBRION"": 2, ""ISIF"": 2, ""ISMEAR"": 1, ""ISPIN"": 1, ""ISTART"": 0, ""KPAR"": 1, ""LAECHG"": true, ""LCHARG"": true, ""LORBIT"": 10, ""LPLANE"": false, ""LREAL"": ""Auto"", ""NCORE"": 4, ""NELM"": 300, ""NSIM"": 1, ""NSW"": 2, ""PREC"": ""Accurate"", ""SIGMA"": 0.2, ""SYSTEM"": ""V-33-d-0.00-cp-0.540""}",V-33-d-0.00-cp-0.540,450.0,1,1,0.2,Pe,"{""Ti"": 4.0, ""V"": 5.0}",257.0,,V
RGS-1sol-T1m-V-V-33-d-0.00-V-33-d-0.00-CP-0.560,RGS-1sol,RGS-1sol/T1m/V/V-33-d-0.00/V-33-d-0.00-CP-0.560,/mnt/e/Onedrive/TiGB-Project/Data/RGS-1sol/T1m/V/V-33-d-0.00/V-33-d-0.00-CP-0.560,CONTCAR,64,Ti63 V1,1756.1076583245747,2.8996780547003476,-475.25377151,-7.42584017984375,"{""ALGO"": ""Fast"", ""AMIX"": 0.01, ""BMIX"": 0.0001, ""EDIFF"": 1e-05, ""EDIFFG"": -0.01, ""ENCUT"": 450.0, ""GGA"": ""Pe"", ""IBRION"": 2, ""ISIF"": 2, ""ISMEAR"": 1, ""ISPIN"": 1, ""ISTART"": 0, ""KPAR"": 1, ""LAECHG"": true, ""LCHARG"": true, ""LORBIT"": 10, ""LPLANE"": false, ""LREAL"": ""Auto"", ""NCORE"": 4, ""NELM"": 300, ""NSIM"": 1, ""NSW"": 2, ""PREC"": ""Accurate"", ""SIGMA"": 0.2, ""SYSTEM"": ""V-33-d-0.00-cp-0.560""}",V-33-d-0.00-cp-0.560,450.0,1,1,0.2,Pe,"{""Ti"": 4.0, ""V"": 5.0}",257.0,,V
RGS-1sol-T1m-V-V-33-d-0.00-V-33-d-0.00-CP-0.580,RGS-1sol,RGS-1sol/T1m/V/V-33-d-0.00/V-33-d-0.00-CP-0.580,/mnt/e/Onedrive/TiGB-Project/Data/RGS-1sol/T1m/V/V-33-d-0.00/V-33-d-0.00-CP-0.580,CONTCAR,64,Ti63 V1,1756.1076583245747,2.8996780547003476,-476.04049091,-7.43813267046875,"{""ALGO"": ""Fast"", ""AMIX"": 0.01, ""BMIX"": 0.0001, ""EDIFF"": 1e-05, ""EDIFFG"": -0.01, ""ENCUT"": 450.0, ""GGA"": ""Pe"", ""IBRION"": 2, ""ISIF"": 2, ""ISMEAR"": 1, ""ISPIN"": 1, ""ISTART"": 0, ""KPAR"": 1, ""LAECHG"": true, ""LCHARG"": true, ""LORBIT"": 10, ""LPLANE"": false, ""LREAL"": ""Auto"", ""NCORE"": 4, ""NELM"": 300, ""NSIM"": 1, ""NSW"": 2, ""PREC"": ""Accurate"", ""SIGMA"": 0.2, ""SYSTEM"": ""V-33-d-0.00-cp-0.580""}",V-33-d-0.00-cp-0.580,450.0,1,1,0.2,Pe,"{""Ti"": 4.0, ""V"": 5.0}",257.0,,V
RGS-1sol-T1m-V-V-33-d-0.00-V-33-d-0.00-CP-0.590,RGS-1sol,RGS-1sol/T1m/V/V-33-d-0.00/V-33-d-0.00-CP-0.590,/mnt/e/Onedrive/TiGB-Project/Data/RGS-1sol/T1m/V/V-33-d-0.00/V-33-d-0.00-CP-0.590,CONTCAR,64,Ti63 V1,1756.1076583245747,2.8996780547003476,-476.04049099,-7.43813267171875,"{""ALGO"": ""Fast"", ""AMIX"": 0.01, ""BMIX"": 0.0001, ""EDIFF"": 1e-05, ""EDIFFG"": -0.01, ""ENCUT"": 450.0, ""GGA"": ""Pe"", ""IBRION"": 2, ""ISIF"": 2, ""ISMEAR"": 1, ""ISPIN"": 1, ""ISTART"": 0, ""KPAR"": 1, ""LAECHG"": true, ""LCHARG"": true, ""LORBIT"": 10, ""LPLANE"": false, ""LREAL"": ""Auto"", ""NCORE"": 4, ""NELM"": 300, ""NSIM"": 1, ""NSW"": 2, ""PREC"": ""Accurate"", ""SIGMA"": 0.2, ""SYSTEM"": ""V-33-d-0.00-cp-0.590""}",V-33-d-0.00-cp-0.590,450.0,1,1,0.2,Pe,"{""Ti"": 4.0, ""V"": 5.0}",257.0,,V
RGS-1sol-T1m-V-V-33-d-0.00-V-33-d-0.00-CP-0.620,RGS-1sol,RGS-1sol/T1m/V/V-33-d-0.00/V-33-d-0.00-CP-0.620,/mnt/e/Onedrive/TiGB-Project/Data/RGS-1sol/T1m/V/V-33-d-0.00/V-33-d-0.00-CP-0.620,CONTCAR,64,Ti63 V1,1756.1076583245747,2.8996780547003476,-475.72676258,-7.4332306653125,"{""ALGO"": ""Fast"", ""AMIX"": 0.01, ""BMIX"": 0.0001, ""EDIFF"": 1e-05, ""EDIFFG"": -0.01, ""ENCUT"": 450.0, ""GGA"": ""Pe"", ""IBRION"": 2, ""ISIF"": 2, ""ISMEAR"": 1, ""ISPIN"": 1, ""ISTART"": 0, ""KPAR"": 1, ""LAECHG"": true, ""LCHARG"": true, ""LORBIT"": 10, ""LPLANE"": false, ""LREAL"": ""Auto"", ""NCORE"": 4, ""NELM"": 300, ""NSIM"": 1, ""NSW"": 2, ""PREC"": ""Accurate"", ""SIGMA"": 0.2, ""SYSTEM"": ""V-33-d-0.00-cp-0.620""}",V-33-d-0.00-cp-0.620,450.0,1,1,0.2,Pe,"{""Ti"": 4.0, ""V"": 5.0}",257.0,,V
RGS-1sol-T1m-V-V-33-d-0.00-V-33-d-0.00-CP-0.640,RGS-1sol,RGS-1sol/T1m/V/V-33-d-0.00/V-33-d-0.00-CP-0.640,/mnt/e/Onedrive/TiGB-Project/Data/RGS-1sol/T1m/V/V-33-d-0.00/V-33-d-0.00-CP-0.640,CONTCAR,64,Ti63 V1,1756.1076583245747,2.8996780547003476,-1530.53177333,-23.91455895828125,"{""ALGO"": ""Fast"", ""AMIX"": 0.01, ""BMIX"": 0.0001, ""EDIFF"": 1e-05, ""EDIFFG"": -0.01, ""ENCUT"": 450.0, ""GGA"": ""Pe"", ""IBRION"": 2, ""ISIF"": 2, ""ISMEAR"": 1, ""ISPIN"": 1, ""ISTART"": 0, ""KPAR"": 1, ""LAECHG"": true, ""LCHARG"": true, ""LORBIT"": 10, ""LPLANE"": false, ""LREAL"": ""Auto"", ""NCORE"": 4, ""NELM"": 300, ""NSIM"": 1, ""NSW"": 2, ""PREC"": ""Accurate"", ""SIGMA"": 0.2, ""SYSTEM"": ""V-33-d-0.00-cp-0.640""}",V-33-d-0.00-cp-0.640,450.0,1,1,0.2,Pe,"{""Ti"": 4.0, ""V"": 5.0}",257.0,,V
RGS-1sol-T1m-V-V-33-d-0.00-V-33-d-0.00-CP-0.655,RGS-1sol,RGS-1sol/T1m/V/V-33-d-0.00/V-33-d-0.00-CP-0.655,/mnt/e/Onedrive/TiGB-Project/Data/RGS-1sol/T1m/V/V-33-d-0.00/V-33-d-0.00-CP-0.655,CONTCAR,64,Ti63 V1,1756.1076583245747,2.8996780547003476,-141.34343365,-2.20849115078125,"{""ALGO"": ""Fast"", ""AMIX"": 0.01, ""BMIX"": 0.0001, ""EDIFF"": 1e-05, ""EDIFFG"": -0.01, ""ENCUT"": 450.0, ""GGA"": ""Pe"", ""IBRION"": 2, ""ISIF"": 2, ""ISMEAR"": 1, ""ISPIN"": 1, ""ISTART"": 0, ""KPAR"": 1, ""LAECHG"": true, ""LCHARG"": true, ""LORBIT"": 10, ""LPLANE"": false, ""LREAL"": ""Auto"", ""NCORE"": 4, ""NELM"": 300, ""NSIM"": 1, ""NSW"": 2, ""PREC"": ""Accurate"", ""SIGMA"": 0.2, ""SYSTEM"": ""V-33-d-0.00-cp-0.655""}",V-33-d-0.00-cp-0.655,450.0,1,1,0.2,Pe,"{""Ti"": 4.0, ""V"": 5.0}",257.0,,V
RGS-1sol-T2-V-V-35-d-0.63-V-35-d-0.63,RGS-1sol,RGS-1sol/T2/V/V-35-d-0.63/V-35-d-0.63,/mnt/e/Onedrive/TiGB-Project/Data/RGS-1sol/T2/V/V-35-d-0.63/V-35-d-0.63,CONTCAR,64,Ti63 V1,1898.3108162424583,2.6824621105064597,-481.60259,-7.52504046875,"{""ALGO"": ""Fast"", ""AMIX"": 0.01, ""BMIX"": 0.0001, ""EDIFF"": 1e-05, ""EDIFFG"": -0.01, ""ENCUT"": 450.0, ""GGA"": ""Pe"", ""IBRION"": 2, ""ISIF"": 2, ""ISMEAR"": 1, ""ISPIN"": 1, ""ISTART"": 0, ""KPAR"": 1, ""LAECHG"": true, ""LCHARG"": true, ""LORBIT"": 10, ""LPLANE"": false, ""LREAL"": ""Auto"", ""NCORE"": 4, ""NELM"": 300, ""NSIM"": 1, ""NSW"": 2, ""PREC"": ""Accurate"", ""SIGMA"": 0.2, ""SYSTEM"": ""V-35-d-0.63""}",V-35-d-0.63,450.0,1,1,0.2,Pe,"{""Ti"": 4.0, ""V"": 5.0}",257.0,,V
RGS-1sol-T2-V-V-35-d-0.63-V-35-d-0.63-CP-0.410,RGS-1sol,RGS-1sol/T2/V/V-35-d-0.63/V-35-d-0.63-CP-0.410,/mnt/e/Onedrive/TiGB-Project/Data/RGS-1sol/T2/V/V-35-d-0.63/V-35-d-0.63-CP-0.410,CONTCAR,64,Ti63 V1,1898.3108162424583,2.6824621105064597,-467.15775257,-7.29933988390625,"{""ALGO"": ""Fast"", ""AMIX"": 0.01, ""BMIX"": 0.0001, ""EDIFF"": 1e-05, ""EDIFFG"": -0.01, ""ENCUT"": 450.0, ""GGA"": ""Pe"", ""IBRION"": 2, ""ISIF"": 2, ""ISMEAR"": 1, ""ISPIN"": 1, ""ISTART"": 0, ""KPAR"": 1, ""LAECHG"": true, ""LCHARG"": true, ""LORBIT"": 10, ""LPLANE"": false, ""LREAL"": ""Auto"", ""NCORE"": 4, ""NELM"": 300, ""NSIM"": 1, ""NSW"": 2, ""PREC"": ""Accurate"", ""SIGMA"": 0.2, ""SYSTEM"": ""V-35-d-0.63-cp-0.410""}",V-35-d-0.63-cp-0.410,450.0,1,1,0.2,Pe,"{""Ti"": 4.0, ""V"": 5.0}",257.0,,V
RGS-1sol-T2-V-V-35-d-0.63-V-35-d-0.63-CP-0.420,RGS-1sol,RGS-1sol/T2/V/V-35-d-0.63/V-35-d-0.63-CP-0.420,/mnt/e/Onedrive/TiGB-Project/Data/RGS-1sol/T2/V/V-35-d-0.63/V-35-d-0.63-CP-0.420,CONTCAR,64,Ti63 V1,1898.3108162424583,2.6824621105064597,-467.48143709,-7.30439745453125,"{""ALGO"": ""Fast"", ""AMIX"": 0.01, ""BMIX"": 0.0001, ""EDIFF"": 1e-05, ""EDIFFG"": -0.01, ""ENCUT"": 450.0, ""GGA"": ""Pe"", ""IBRION"": 2, ""ISIF"": 2, ""ISMEAR"": 1, ""ISPIN"": 1, ""ISTART"": 0, ""KPAR"": 1, ""LAECHG"": true, ""LCHARG"": true, ""LORBIT"": 10, ""LPLANE"": false, ""LREAL"": ""Auto"", ""NCORE"": 4, ""NELM"": 300, ""NSIM"": 1, ""NSW"": 2, ""PREC"": ""Accurate"", ""SIGMA"": 0.2, ""SYSTEM"": ""V-35-d-0.63-cp-0.420""}",V-35-d-0.63-cp-0.420,450.0,1,1,0.2,Pe,"{""Ti"": 4.0, ""V"": 5.0}",257.0,,V
RGS-1sol-T2-V-V-35-d-0.63-V-35-d-0.63-CP-0.440,RGS-1sol,RGS-1sol/T2/V/V-35-d-0.63/V-35-d-0.63-CP-0.440,/mnt/e/Onedrive/TiGB-Project/Data/RGS-1sol/T2/V/V-35-d-0.63/V-35-d-0.63-CP-0.440,CONTCAR,64,Ti63 V1,1898.3108162424583,2.6824621105064597,-468.00150015,-7.31252343984375,"{""ALGO"": ""Fast"", ""AMIX"": 0.01, ""BMIX"": 0.0001, ""EDIFF"": 1e-05, ""EDIFFG"": -0.01, ""ENCUT"": 450.0, ""GGA"": ""Pe"", ""IBRION"": 2, ""ISIF"": 2, ""ISMEAR"": 1, ""ISPIN"": 1, ""ISTART"": 0, ""KPAR"": 1, ""LAECHG"": true, ""LCHARG"": true, ""LORBIT"": 10, ""LPLANE"": false, ""LREAL"": ""Auto"", ""NCORE"": 4, ""NELM"": 300, ""NSIM"": 1, ""NSW"": 2, ""PREC"": ""Accurate"", ""SIGMA"": 0.2, ""SYSTEM"": ""V-35-d-0.63-cp-0.440""}",V-35-d-0.63-cp-0.440,450.0,1,1,0.2,Pe,"{""Ti"": 4.0, ""V"": 5.0}",257.0,,V
RGS-1sol-T2-V-V-35-d-0.63-V-35-d-0.63-CP-0.460,RGS-1sol,RGS-1sol/T2/V/V-35-d-0.63/V-35-d-0.63-CP-0.460,/mnt/e/Onedrive/TiGB-Project/Data/RGS-1sol/T2/V/V-35-d-0.63/V-35-d-0.63-CP-0.460,CONTCAR,64,Ti63 V1,1898.3108162424583,2.6824621105064597,-468.10883187,-7.31420049796875,"{""ALGO"": ""Fast"", ""AMIX"": 0.01, ""BMIX"": 0.0001, ""EDIFF"": 1e-05, ""EDIFFG"": -0.01, ""ENCUT"": 450.0, ""GGA"": ""Pe"", ""IBRION"": 2, ""ISIF"": 2, ""ISMEAR"": 1, ""ISPIN"": 1, ""ISTART"": 0, ""KPAR"": 1, ""LAECHG"": true, ""LCHARG"": true, ""LORBIT"": 10, ""LPLANE"": false, ""LREAL"": ""Auto"", ""NCORE"": 4, ""NELM"": 300, ""NSIM"": 1, ""NSW"": 2, ""PREC"": ""Accurate"", ""SIGMA"": 0.2, ""SYSTEM"": ""V-35-d-0.63-cp-0.460""}",V-35-d-0.63-cp-0.460,450.0,1,1,0.2,Pe,"{""Ti"": 4.0, ""V"": 5.0}",257.0,,V
RGS-1sol-T2-V-V-35-d-0.63-V-35-d-0.63-CP-0.480,RGS-1sol,RGS-1sol/T2/V/V-35-d-0.63/V-35-d-0.63-CP-0.480,/mnt/e/Onedrive/TiGB-Project/Data/RGS-1sol/T2/V/V-35-d-0.63/V-35-d-0.63-CP-0.480,CONTCAR,64,Ti63 V1,1898.3108162424583,2.6824621105064597,-468.45572735,-7.31962073984375,"{""ALGO"": ""Fast"", ""AMIX"": 0.01, ""BMIX"": 0.0001, ""EDIFF"": 1e-05, ""EDIFFG"": -0.01, ""ENCUT"": 450.0, ""GGA"": ""Pe"", ""IBRION"": 2, ""ISIF"": 2, ""ISMEAR"": 1, ""ISPIN"": 1, ""ISTART"": 0, ""KPAR"": 1, ""LAECHG"": true, ""LCHARG"": true, ""LORBIT"": 10, ""LPLANE"": false, ""LREAL"": ""Auto"", ""NCORE"": 4, ""NELM"": 300, ""NSIM"": 1, ""NSW"": 2, ""PREC"": ""Accurate"", ""SIGMA"": 0.2, ""SYSTEM"": ""V-35-d-0.63-cp-0.480""}",V-35-d-0.63-cp-0.480,450.0,1,1,0.2,Pe,"{""Ti"": 4.0, ""V"": 5.0}",257.0,,V
RGS-1sol-T2-V-V-35-d-0.63-V-35-d-0.63-CP-0.500,RGS-1sol,RGS-1sol/T2/V/V-35-d-0.63/V-35-d-0.63-CP-0.500,/mnt/e/Onedrive/TiGB-Project/Data/RGS-1sol/T2/V/V-35-d-0.63/V-35-d-0.63-CP-0.500,CONTCAR,64,Ti63 V1,1898.3108162424583,2.6824621105064597,-466.93882469,-7.29591913578125,"{""ALGO"": ""Fast"", ""AMIX"": 0.01, ""BMIX"": 0.0001, ""EDIFF"": 1e-05, ""EDIFFG"": -0.01, ""ENCUT"": 450.0, ""GGA"": ""Pe"", ""IBRION"": 2, ""ISIF"": 2, ""ISMEAR"": 1, ""ISPIN"": 1, ""ISTART"": 0, ""KPAR"": 1, ""LAECHG"": true, ""LCHARG"": true, ""LORBIT"": 10, ""LPLANE"": false, ""LREAL"": ""Auto"", ""NCORE"": 4, ""NELM"": 300, ""NSIM"": 1, ""NSW"": 2, ""PREC"": ""Accurate"", ""SIGMA"": 0.2, ""SYSTEM"": ""V-35-d-0.63-cp-0.500""}",V-35-d-0.63-cp-0.500,450.0,1,1,0.2,Pe,"{""Ti"": 4.0, ""V"": 5.0}",257.0,,V
RGS-1sol-T2-V-V-35-d-0.63-V-35-d-0.63-CP-0.520,RGS-1sol,RGS-1sol/T2/V/V-35-d-0.63/V-35-d-0.63-CP-0.520,/mnt/e/Onedrive/TiGB-Project/Data/RGS-1sol/T2/V/V-35-d-0.63/V-35-d-0.63-CP-0.520,CONTCAR,64,Ti63 V1,1898.3108162424583,2.6824621105064597,-464.93030904,-7.26453607875,"{""ALGO"": ""Fast"", ""AMIX"": 0.01, ""BMIX"": 0.0001, ""EDIFF"": 1e-05, ""EDIFFG"": -0.01, ""ENCUT"": 450.0, ""GGA"": ""Pe"", ""IBRION"": 2, ""ISIF"": 2, ""ISMEAR"": 1, ""ISPIN"": 1, ""ISTART"": 0, ""KPAR"": 1, ""LAECHG"": true, ""LCHARG"": true, ""LORBIT"": 10, ""LPLANE"": false, ""LREAL"": ""Auto"", ""NCORE"": 4, ""NELM"": 300, ""NSIM"": 1, ""NSW"": 2, ""PREC"": ""Accurate"", ""SIGMA"": 0.2, ""SYSTEM"": ""V-35-d-0.63-cp-0.520""}",V-35-d-0.63-cp-0.520,450.0,1,1,0.2,Pe,"{""Ti"": 4.0, ""V"": 5.0}",257.0,,V
RGS-1sol-T2-V-V-35-d-0.63-V-35-d-0.63-CP-0.540,RGS-1sol,RGS-1sol/T2/V/V-35-d-0.63/V-35-d-0.63-CP-0.540,/mnt/e/Onedrive/TiGB-Project/Data/RGS-1sol/T2/V/V-35-d-0.63/V-35-d-0.63-CP-0.540,CONTCAR,64,Ti63 V1,1898.3108162424583,2.6824621105064597,-466.45679544,-7.28838742875,"{""ALGO"": ""Fast"", ""AMIX"": 0.01, ""BMIX"": 0.0001, ""EDIFF"": 1e-05, ""EDIFFG"": -0.01, ""ENCUT"": 450.0, ""GGA"": ""Pe"", ""IBRION"": 2, ""ISIF"": 2, ""ISMEAR"": 1, ""ISPIN"": 1, ""ISTART"": 0, ""KPAR"": 1, ""LAECHG"": true, ""LCHARG"": true, ""LORBIT"": 10, ""LPLANE"": false, ""LREAL"": ""Auto"", ""NCORE"": 4, ""NELM"": 300, ""NSIM"": 1, ""NSW"": 2, ""PREC"": ""Accurate"", ""SIGMA"": 0.2, ""SYSTEM"": ""V-35-d-0.63-cp-0.540""}",V-35-d-0.63-cp-0.540,450.0,1,1,0.2,Pe,"{""Ti"": 4.0, ""V"": 5.0}",257.0,,V
RGS-1sol-T2-V-V-35-d-0.63-V-35-d-0.63-CP-0.560,RGS-1sol,RGS-1sol/T2/V/V-35-d-0.63/V-35-d-0.63-CP-0.560,/mnt/e/Onedrive/TiGB-Project/Data/RGS-1sol/T2/V/V-35-d-0.63/V-35-d-0.63-CP-0.560,CONTCAR,64,Ti63 V1,1898.3108162424583,2.6824621105064597,-468.27575429,-7.31680866078125,"{""ALGO"": ""Fast"", ""AMIX"": 0.01, ""BMIX"": 0.0001, ""EDIFF"": 1e-05, ""EDIFFG"": -0.01, ""ENCUT"": 450.0, ""GGA"": ""Pe"", ""IBRION"": 2, ""ISIF"": 2, ""ISMEAR"": 1, ""ISPIN"": 1, ""ISTART"": 0, ""KPAR"": 1, ""LAECHG"": true, ""LCHARG"": true, ""LORBIT"": 10, ""LPLANE"": false, ""LREAL"": ""Auto"", ""NCORE"": 4, ""NELM"": 300, ""NSIM"": 1, ""NSW"": 2, ""PREC"": ""Accurate"", ""SIGMA"": 0.2, ""SYSTEM"": ""V-35-d-0.63-cp-0.560""}",V-35-d-0.63-cp-0.560,450.0,1,1,0.2,Pe,"{""Ti"": 4.0, ""V"": 5.0}",257.0,,V
RGS-1sol-T2-V-V-35-d-0.63-V-35-d-0.63-CP-0.570,RGS-1sol,RGS-1sol/T2/V/V-35-d-0.63/V-35-d-0.63-CP-0.570,/mnt/e/Onedrive/TiGB-Project/Data/RGS-1sol/T2/V/V-35-d-0.63/V-35-d-0.63-CP-0.570,CONTCAR,64,Ti63 V1,1898.3108162424583,2.6824621105064597,-468.38337371,-7.31849021421875,"{""ALGO"": ""Fast"", ""AMIX"": 0.01, ""BMIX"": 0.0001, ""EDIFF"": 1e-05, ""EDIFFG"": -0.01, ""ENCUT"": 450.0, ""GGA"": ""Pe"", ""IBRION"": 2, ""ISIF"": 2, ""ISMEAR"": 1, ""ISPIN"": 1, ""ISTART"": 0, ""KPAR"": 1, ""LAECHG"": true, ""LCHARG"": true, ""LORBIT"": 10, ""LPLANE"": false, ""LREAL"": ""Auto"", ""NCORE"": 4, ""NELM"": 300, ""NSIM"": 1, ""NSW"": 2, ""PREC"": ""Accurate"", ""SIGMA"": 0.2, ""SYSTEM"": ""V-35-d-0.63-cp-0.570""}",V-35-d-0.63-cp-0.570,450.0,1,1,0.2,Pe,"{""Ti"": 4.0, ""V"": 5.0}",257.0,,V
RGS-1sol-T2-V-V-35-d-0.63-V-35-d-0.63-CP-0.590,RGS-1sol,RGS-1sol/T2/V/V-35-d-0.63/V-35-d-0.63-CP-0.590,/mnt/e/Onedrive/TiGB-Project/Data/RGS-1sol/T2/V/V-35-d-0.63/V-35-d-0.63-CP-0.590,CONTCAR,64,Ti63 V1,1898.3108162424583,2.6824621105064597,-468.14261644,-7.314728381875,"{""ALGO"": ""Fast"", ""AMIX"": 0.01, ""BMIX"": 0.0001, ""EDIFF"": 1e-05, ""EDIFFG"": -0.01, ""ENCUT"": 450.0, ""GGA"": ""Pe"", ""IBRION"": 2, ""ISIF"": 2, ""ISMEAR"": 1, ""ISPIN"": 1, ""ISTART"": 0, ""KPAR"": 1, ""LAECHG"": true, ""LCHARG"": true, ""LORBIT"": 10, ""LPLANE"": false, ""LREAL"": ""Auto"", ""NCORE"": 4, ""NELM"": 300, ""NSIM"": 1, ""NSW"": 2, ""PREC"": ""Accurate"", ""SIGMA"": 0.2, ""SYSTEM"": ""V-35-d-0.63-cp-0.590""}",V-35-d-0.63-cp-0.590,450.0,1,1,0.2,Pe,"{""Ti"": 4.0, ""V"": 5.0}",257.0,,V
RGS-1sol-T2-V-V-35-d-0.63-V-35-d-0.63-CP-0.610,RGS-1sol,RGS-1sol/T2/V/V-35-d-0.63/V-35-d-0.63-CP-0.610,/mnt/e/Onedrive/TiGB-Project/Data/RGS-1sol/T2/V/V-35-d-0.63/V-35-d-0.63-CP-0.610,CONTCAR,64,Ti63 V1,1898.3108162424583,2.6824621105064597,-361.28687011,-5.64510734546875,"{""ALGO"": ""Fast"", ""AMIX"": 0.01, ""BMIX"": 0.0001, ""EDIFF"": 1e-05, ""EDIFFG"": -0.01, ""ENCUT"": 450.0, ""GGA"": ""Pe"", ""IBRION"": 2, ""ISIF"": 2, ""ISMEAR"": 1, ""ISPIN"": 1, ""ISTART"": 0, ""KPAR"": 1, ""LAECHG"": true, ""LCHARG"": true, ""LORBIT"": 10, ""LPLANE"": false, ""LREAL"": ""Auto"", ""NCORE"": 4, ""NELM"": 300, ""NSIM"": 1, ""NSW"": 2, ""PREC"": ""Accurate"", ""SIGMA"": 0.2, ""SYSTEM"": ""V-35-d-0.63-cp-0.610""}",V-35-d-0.63-cp-0.610,450.0,1,1,0.2,Pe,"{""Ti"": 4.0, ""V"": 5.0}",257.0,,V
RGS-1sol-T2-V-V-35-d-0.63-V-35-d-0.63-CP-0.630,RGS-1sol,RGS-1sol/T2/V/V-35-d-0.63/V-35-d-0.63-CP-0.630,/mnt/e/Onedrive/TiGB-Project/Data/RGS-1sol/T2/V/V-35-d-0.63/V-35-d-0.63-CP-0.630,CONTCAR,64,Ti63 V1,1898.3108162424583,2.6824621105064597,-1861.08842289,-29.07950660765625,"{""ALGO"": ""Fast"", ""AMIX"": 0.01, ""BMIX"": 0.0001, ""EDIFF"": 1e-05, ""EDIFFG"": -0.01, ""ENCUT"": 450.0, ""GGA"": ""Pe"", ""IBRION"": 2, ""ISIF"": 2, ""ISMEAR"": 1, ""ISPIN"": 1, ""ISTART"": 0, ""KPAR"": 1, ""LAECHG"": true, ""LCHARG"": true, ""LORBIT"": 10, ""LPLANE"": false, ""LREAL"": ""Auto"", ""NCORE"": 4, ""NELM"": 300, ""NSIM"": 1, ""NSW"": 2, ""PREC"": ""Accurate"", ""SIGMA"": 0.2, ""SYSTEM"": ""V-35-d-0.63-cp-0.630""}",V-35-d-0.63-cp-0.630,450.0,1,1,0.2,Pe,"{""Ti"": 4.0, ""V"": 5.0}",257.0,,V
Segregation-1sol-C1-Al-Al-25-d-0.00,Segregation-1sol,Segregation-1sol/C1/Al/Al-25-d-0.00,/mnt/e/Onedrive/TiGB-Project/Data/Segregation-1sol/C1/Al/Al-25-d-0.00,CONTCAR,52,Ti51 Al1,915.1478097085853,4.478555332500511,-398.91855356,-7.671510645384616,"{""ALGO"": ""Fast"", ""AMIX"": 0.01, ""BMIX"": 0.0001, ""EDIFF"": 0.0001, ""EDIFFG"": -0.02, ""ENCUT"": 450.0, ""GGA"": ""Pe"", ""IBRION"": 2, ""ISIF"": 2, ""ISMEAR"": 1, ""ISPIN"": 1, ""ISTART"": 0, ""KPAR"": 4, ""LORBIT"": 10, ""LPLANE"": false, ""LREAL"": ""Auto"", ""NCORE"": 4, ""NELM"": 120, ""NSIM"": 1, ""NSW"": 60, ""PREC"": ""Accurate"", ""SIGMA"": 0.2, ""SYSTEM"": ""Al-25-d-0.00""}",Al-25-d-0.00,450.0,1,1,0.2,Pe,"{""Ti"": 4.0, ""Al"": 3.0}",207.0,,Al