job_name,top_level,relpath,path,structure_file,num_atoms,formula,volume,density,energy_eV,energy_per_atom_eV,incar,incar_system,incar_encut,incar_ispin,incar_ismear,incar_sigma,incar_gga,potcar_nelectrons_map,potcar_total_nelectrons,parse_errors,solute
Segregation-1sol-T1m-V-V-45-d-4.84,Segregation-1sol,Segregation-1sol/T1m/V/V-45-d-4.84,/mnt/e/Onedrive/TiGB-Project/Data/Segregation-1sol/T1m/V/V-45-d-4.84,CONTCAR,64,Ti63 V1,1108.7119705599027,4.592849156272243,-495.78076721,-7.74657448765625,"{""ALGO"": ""Normal"", ""AMIX"": 0.01, ""BMIX"": 0.0001, ""EDIFF"": 0.0001, ""EDIFFG"": -0.02, ""ENCUT"": 450.0, ""GGA"": ""Pe"", ""IBRION"": 2, ""ISIF"": 2, ""ISMEAR"": 1, ""ISPIN"": 1, ""ISTART"": 0, ""KPAR"": 4, ""LORBIT"": 10, ""LPLANE"": false, ""LREAL"": ""Auto"", ""NCORE"": 4, ""NELM"": 120, ""NSIM"": 1, ""NSW"": 60, ""PREC"": ""Accurate"", ""SIGMA"": 0.2, ""SYSTEM"": ""V-45-d-4.84""}",V-45-d-4.84,450.0,1,1,0.2,Pe,"{""Ti"": 4.0, ""V"": 5.0}",257.0,,V
Segregation-1sol-T1m-V-V-46-d-5.43,Segregation-1sol,Segregation-1sol/T1m/V/V-46-d-5.43,/mnt/e/Onedrive/TiGB-Project/Data/Segregation-1sol/T1m/V/V-46-d-5.43,CONTCAR,64,Ti63 V1,1108.7119705599027,4.592849156272243,-495.92775658,-7.7488711965625,"{""ALGO"": ""Fast"", ""AMIX"": 0.01, ""BMIX"": 0.0001, ""EDIFF"": 0.0001, ""EDIFFG"": -0.02, ""ENCUT"": 450.0, ""GGA"": ""Pe"", ""IBRION"": 2, ""ISIF"": 2, ""ISMEAR"": 1, ""ISPIN"": 1, ""ISTART"": 0, ""KPAR"": 4, ""LORBIT"": 10, ""LPLANE"": false, ""LREAL"": ""Auto"", ""NCORE"": 4, ""NELM"": 120, ""NSIM"": 1, ""NSW"": 60, ""PREC"": ""Accurate"", ""SIGMA"": 0.2, ""SYSTEM"": ""V-46-d-5.43""}",V-46-d-5.43,450.0,1,1,0.2,Pe,"{""Ti"": 4.0, ""V"": 5.0}",257.0,,V
Segregation-1sol-T1m-V-V-47-d-5.43,Segregation-1sol,Segregation-1sol/T1m/V/V-47-d-5.43,/mnt/e/Onedrive/TiGB-Project/Data/Segregation-1sol/T1m/V/V-47-d-5.43,CONTCAR,64,Ti63 V1,1108.7119705599027,4.592849156272243,-495.77528162,-7.7464887753125,"{""ALGO"": ""Normal"", ""AMIX"": 0.01, ""BMIX"": 0.0001, ""EDIFF"": 0.0001, ""EDIFFG"": -0.02, ""ENCUT"": 450.0, ""GGA"": ""Pe"", ""IBRION"": 2, ""ISIF"": 2, ""ISMEAR"": 1, ""ISPIN"": 1, ""ISTART"": 0, ""KPAR"": 4, ""LORBIT"": 10, ""LPLANE"": false, ""LREAL"": ""Auto"", ""NCORE"": 4, ""NELM"": 120, ""NSIM"": 1, ""NSW"": 60, ""PREC"": ""Accurate"", ""SIGMA"": 0.2, ""SYSTEM"": ""V-47-d-5.43""}",V-47-d-5.43,450.0,1,1,0.2,Pe,"{""Ti"": 4.0, ""V"": 5.0}",257.0,,V
Segregation-1sol-T1m-V-V-48-d-6.60,Segregation-1sol,Segregation-1sol/T1m/V/V-48-d-6.60,/mnt/e/Onedrive/TiGB-Project/Data/Segregation-1sol/T1m/V/V-48-d-6.60,CONTCAR,64,Ti63 V1,1108.7119705599027,4.592849156272243,-495.7601927,-7.7462530109375,"{""ALGO"": ""Fast"", ""AMIX"": 0.01, ""BMIX"": 0.0001, ""EDIFF"": 0.0001, ""EDIFFG"": -0.02, ""ENCUT"": 450.0, ""GGA"": ""Pe"", ""IBRION"": 2, ""ISIF"": 2, ""ISMEAR"": 1, ""ISPIN"": 1, ""ISTART"": 0, ""KPAR"": 4, ""LORBIT"": 10, ""LPLANE"": false, ""LREAL"": ""Auto"", ""NCORE"": 4, ""NELM"": 120, ""NSIM"": 1, ""NSW"": 60, ""PREC"": ""Accurate"", ""SIGMA"": 0.2, ""SYSTEM"": ""V-48-d-6.60""}",V-48-d-6.60,450.0,1,1,0.2,Pe,"{""Ti"": 4.0, ""V"": 5.0}",257.0,,V
Segregation-1sol-T1m-V-V-49-d-6.60,Segregation-1sol,Segregation-1sol/T1m/V/V-49-d-6.60,/mnt/e/Onedrive/TiGB-Project/Data/Segregation-1sol/T1m/V/V-49-d-6.60,CONTCAR,64,Ti63 V1,1108.7119705599027,4.592849156272243,-495.75345028,-7.746147660625,"{""ALGO"": ""Normal"", ""AMIX"": 0.01, ""BMIX"": 0.0001, ""EDIFF"": 0.0001, ""EDIFFG"": -0.02, ""ENCUT"": 450.0, ""GGA"": ""Pe"", ""IBRION"": 2, ""ISIF"": 2, ""ISMEAR"": 1, ""ISPIN"": 1, ""ISTART"": 0, ""KPAR"": 4, ""LORBIT"": 10, ""LPLANE"": false, ""LREAL"": ""Auto"", ""NCORE"": 4, ""NELM"": 120, ""NSIM"": 1, ""NSW"": 60, ""PREC"": ""Accurate"", ""SIGMA"": 0.2, ""SYSTEM"": ""V-49-d-6.60""}",V-49-d-6.60,450.0,1,1,0.2,Pe,"{""Ti"": 4.0, ""V"": 5.0}",257.0,"vasprun:no element found: line 4969, column 0",V
Segregation-1sol-T2-Al-Al-32-d-0.00,Segregation-1sol,Segregation-1sol/T2/Al/Al-32-d-0.00,/mnt/e/Onedrive/TiGB-Project/Data/Segregation-1sol/T2/Al/Al-32-d-0.00,CONTCAR,64,Ti63 Al1,1105.3570633764582,4.570794862528288,-492.04695823,-7.68823372234375,"{""ALGO"": ""Fast"", ""AMIX"": 0.01, ""BMIX"": 0.0001, ""EDIFF"": 0.0001, ""EDIFFG"": -0.02, ""ENCUT"": 450.0, ""GGA"": ""Pe"", ""IBRION"": 2, ""ISIF"": 2, ""ISMEAR"": 1, ""ISPIN"": 1, ""ISTART"": 0, ""KPAR"": 4, ""LORBIT"": 10, ""LPLANE"": false, ""LREAL"": ""Auto"", ""NCORE"": 4, ""NELM"": 120, ""NSIM"": 1, ""NSW"": 60, ""PREC"": ""Accurate"", ""SIGMA"": 0.2, ""SYSTEM"": ""Al-32-d-0.00""}",Al-32-d-0.00,450.0,1,1,0.2,Pe,"{""Ti"": 4.0, ""Al"": 3.0}",255.0,,Al
Segregation-1sol-T2-Al-Al-33-d-0.00,Segregation-1sol,Segregation-1sol/T2/Al/Al-33-d-0.00,/mnt/e/Onedrive/TiGB-Project/Data/Segregation-1sol/T2/Al/Al-33-d-0.00,CONTCAR,64,Ti63 Al1,1105.3570633764582,4.570794862528288,-492.04866647,-7.68826041359375,"{""ALGO"": ""Fast"", ""AMIX"": 0.01, ""BMIX"": 0.0001, ""EDIFF"": 0.0001, ""EDIFFG"": -0.02, ""ENCUT"": 450.0, ""GGA"": ""Pe"", ""IBRION"": 2, ""ISIF"": 2, ""ISMEAR"": 1, ""ISPIN"": 1, ""ISTART"": 0, ""KPAR"": 4, ""LORBIT"": 10, ""LPLANE"": false, ""LREAL"": ""Auto"", ""NCORE"": 4, ""NELM"": 120, ""NSIM"": 1, ""NSW"": 60, ""PREC"": ""Accurate"", ""SIGMA"": 0.2, ""SYSTEM"": ""Al-33-d-0.00""}",Al-33-d-0.00,450.0,1,1,0.2,Pe,"{""Ti"": 4.0, ""Al"": 3.0}",255.0,,Al
Segregation-1sol-T2-Al-Al-34-d-0.63,Segregation-1sol,Segregation-1sol/T2/Al/Al-34-d-0.63,/mnt/e/Onedrive/TiGB-Project/Data/Segregation-1sol/T2/Al/Al-34-d-0.63,CONTCAR,64,Ti63 Al1,1105.3570633764582,4.570794862528288,-492.01685512,-7.68776336125,"{""ALGO"": ""Fast"", ""AMIX"": 0.01, ""BMIX"": 0.0001, ""EDIFF"": 0.0001, ""EDIFFG"": -0.02, ""ENCUT"": 450.0, ""GGA"": ""Pe"", ""IBRION"": 2, ""ISIF"": 2, ""ISMEAR"": 1, ""ISPIN"": 1, ""ISTART"": 0, ""KPAR"": 4, ""LORBIT"": 10, ""LPLANE"": false, ""LREAL"": ""Auto"", ""NCORE"": 4, ""NELM"": 120, ""NSIM"": 1, ""NSW"": 60, ""PREC"": ""Accurate"", ""SIGMA"": 0.2, ""SYSTEM"": ""Al-34-d-0.63""}",Al-34-d-0.63,450.0,1,1,0.2,Pe,"{""Ti"": 4.0, ""Al"": 3.0}",255.0,,Al
Segregation-1sol-T2-Al-Al-35-d-0.63,Segregation-1sol,Segregation-1sol/T2/Al/Al-35-d-0.63,/mnt/e/Onedrive/TiGB-Project/Data/Segregation-1sol/T2/Al/Al-35-d-0.63,CONTCAR,64,Ti63 Al1,1105.3570633764582,4.570794862528288,-492.0183912,-7.6877873625,"{""ALGO"": ""Normal"", ""AMIX"": 0.01, ""BMIX"": 0.0001, ""EDIFF"": 0.0001, ""EDIFFG"": -0.02, ""ENCUT"": 450.0, ""GGA"": ""Pe"", ""IBRION"": 2, ""ISIF"": 2, ""ISMEAR"": 1, ""ISPIN"": 1, ""ISTART"": 0, ""KPAR"": 4, ""LORBIT"": 10, ""LPLANE"": false, ""LREAL"": ""Auto"", ""NCORE"": 4, ""NELM"": 120, ""NSIM"": 1, ""NSW"": 60, ""PREC"": ""Accurate"", ""SIGMA"": 0.2, ""SYSTEM"": ""Al-35-d-0.63""}",Al-35-d-0.63,450.0,1,1,0.2,Pe,"{""Ti"": 4.0, ""Al"": 3.0}",255.0,,Al
Segregation-1sol-T2-Al-Al-36-d-1.39,Segregation-1sol,Segregation-1sol/T2/Al/Al-36-d-1.39,/mnt/e/Onedrive/TiGB-Project/Data/Segregation-1sol/T2/Al/Al-36-d-1.39,CONTCAR,64,Ti63 Al1,1105.3570633764582,4.570794862528288,-492.07613228,-7.688689566875,"{""ALGO"": ""Fast"", ""AMIX"": 0.01, ""BMIX"": 0.0001, ""EDIFF"": 0.0001, ""EDIFFG"": -0.02, ""ENCUT"": 450.0, ""GGA"": ""Pe"", ""IBRION"": 2, ""ISIF"": 2, ""ISMEAR"": 1, ""ISPIN"": 1, ""ISTART"": 0, ""KPAR"": 4, ""LORBIT"": 10, ""LPLANE"": false, ""LREAL"": ""Auto"", ""NCORE"": 4, ""NELM"": 120, ""NSIM"": 1, ""NSW"": 60, ""PREC"": ""Accurate"", ""SIGMA"": 0.2, ""SYSTEM"": ""Al-36-d-1.39""}",Al-36-d-1.39,450.0,1,1,0.2,Pe,"{""Ti"": 4.0, ""Al"": 3.0}",255.0,,Al
Segregation-1sol-T2-Al-Al-37-d-1.39,Segregation-1sol,Segregation-1sol/T2/Al/Al-37-d-1.39,/mnt/e/Onedrive/TiGB-Project/Data/Segregation-1sol/T2/Al/Al-37-d-1.39,CONTCAR,64,Ti63 Al1,1105.3570633764582,4.570794862528288,-492.07555028,-7.688680473125,"{""ALGO"": ""Normal"", ""AMIX"": 0.01, ""BMIX"": 0.0001, ""EDIFF"": 0.0001, ""EDIFFG"": -0.02, ""ENCUT"": 450.0, ""GGA"": ""Pe"", ""IBRION"": 2, ""ISIF"": 2, ""ISMEAR"": 1, ""ISPIN"": 1, ""ISTART"": 0, ""KPAR"": 4, ""LORBIT"": 10, ""LPLANE"": false, ""LREAL"": ""Auto"", ""NCORE"": 4, ""NELM"": 120, ""NSIM"": 1, ""NSW"": 60, ""PREC"": ""Accurate"", ""SIGMA"": 0.2, ""SYSTEM"": ""Al-37-d-1.39""}",Al-37-d-1.39,450.0,1,1,0.2,Pe,"{""Ti"": 4.0, ""Al"": 3.0}",255.0,,Al
Segregation-1sol-T2-Al-Al-38-d-2.12,Segregation-1sol,Segregation-1sol/T2/Al/Al-38-d-2.12,/mnt/e/Onedrive/TiGB-Project/Data/Segregation-1sol/T2/Al/Al-38-d-2.12,CONTCAR,64,Ti63 Al1,1105.3570633764582,4.570794862528288,-492.13175548,-7.689558679375,"{""ALGO"": ""Fast"", ""AMIX"": 0.01, ""BMIX"": 0.0001, ""EDIFF"": 0.0001, ""EDIFFG"": -0.02, ""ENCUT"": 450.0, ""GGA"": ""Pe"", ""IBRION"": 2, ""ISIF"": 2, ""ISMEAR"": 1, ""ISPIN"": 1, ""ISTART"": 0, ""KPAR"": 4, ""LORBIT"": 10, ""LPLANE"": false, ""LREAL"": ""Auto"", ""NCORE"": 4, ""NELM"": 120, ""NSIM"": 1, ""NSW"": 60, ""PREC"": ""Accurate"", ""SIGMA"": 0.2, ""SYSTEM"": ""Al-38-d-2.12""}",Al-38-d-2.12,450.0,1,1,0.2,Pe,"{""Ti"": 4.0, ""Al"": 3.0}",255.0,,Al
Segregation-1sol-T2-Al-Al-39-d-2.12,Segregation-1sol,Segregation-1sol/T2/Al/Al-39-d-2.12,/mnt/e/Onedrive/TiGB-Project/Data/Segregation-1sol/T2/Al/Al-39-d-2.12,CONTCAR,64,Ti63 Al1,1105.3570633764582,4.570794862528288,-492.13572964,-7.689620775625,"{""ALGO"": ""Normal"", ""AMIX"": 0.01, ""BMIX"": 0.0001, ""EDIFF"": 0.0001, ""EDIFFG"": -0.02, ""ENCUT"": 450.0, ""GGA"": ""Pe"", ""IBRION"": 2, ""ISIF"": 2, ""ISMEAR"": 1, ""ISPIN"": 1, ""ISTART"": 0, ""KPAR"": 4, ""LORBIT"": 10, ""LPLANE"": false, ""LREAL"": ""Auto"", ""NCORE"": 4, ""NELM"": 120, ""NSIM"": 1, ""NSW"": 60, ""PREC"": ""Accurate"", ""SIGMA"": 0.2, ""SYSTEM"": ""Al-39-d-2.12""}",Al-39-d-2.12,450.0,1,1,0.2,Pe,"{""Ti"": 4.0, ""Al"": 3.0}",255.0,,Al
Segregation-1sol-T2-Al-Al-40-d-2.77,Segregation-1sol,Segregation-1sol/T2/Al/Al-40-d-2.77,/mnt/e/Onedrive/TiGB-Project/Data/Segregation-1sol/T2/Al/Al-40-d-2.77,CONTCAR,64,Ti63 Al1,1105.3570633764582,4.570794862528288,-492.12475883,-7.68944935671875,"{""ALGO"": ""Fast"", ""AMIX"": 0.01, ""BMIX"": 0.0001, ""EDIFF"": 0.0001, ""EDIFFG"": -0.02, ""ENCUT"": 450.0, ""GGA"": ""Pe"", ""IBRION"": 2, ""ISIF"": 2, ""ISMEAR"": 1, ""ISPIN"": 1, ""ISTART"": 0, ""KPAR"": 4, ""LORBIT"": 10, ""LPLANE"": false, ""LREAL"": ""Auto"", ""NCORE"": 4, ""NELM"": 120, ""NSIM"": 1, ""NSW"": 60, ""PREC"": ""Accurate"", ""SIGMA"": 0.2, ""SYSTEM"": ""Al-40-d-2.77""}",Al-40-d-2.77,450.0,1,1,0.2,Pe,"{""Ti"": 4.0, ""Al"": 3.0}",255.0,,Al
Segregation-1sol-T2-Al-Al-41-d-2.77,Segregation-1sol,Segregation-1sol/T2/Al/Al-41-d-2.77,/mnt/e/Onedrive/TiGB-Project/Data/Segregation-1sol/T2/Al/Al-41-d-2.77,CONTCAR,64,Ti63 Al1,1105.3570633764582,4.570794862528288,-492.12645936,-7.6894759275,"{""ALGO"": ""Normal"", ""AMIX"": 0.01, ""BMIX"": 0.0001, ""EDIFF"": 0.0001, ""EDIFFG"": -0.02, ""ENCUT"": 450.0, ""GGA"": ""Pe"", ""IBRION"": 2, ""ISIF"": 2, ""ISMEAR"": 1, ""ISPIN"": 1, ""ISTART"": 0, ""KPAR"": 4, ""LORBIT"": 10, ""LPLANE"": false, ""LREAL"": ""Auto"", ""NCORE"": 4, ""NELM"": 120, ""NSIM"": 1, ""NSW"": 60, ""PREC"": ""Accurate"", ""SIGMA"": 0.2, ""SYSTEM"": ""Al-41-d-2.77""}",Al-41-d-2.77,450.0,1,1,0.2,Pe,"{""Ti"": 4.0, ""Al"": 3.0}",255.0,,Al
Segregation-1sol-T2-Al-Al-42-d-3.50,Segregation-1sol,Segregation-1sol/T2/Al/Al-42-d-3.50,/mnt/e/Onedrive/TiGB-Project/Data/Segregation-1sol/T2/Al/Al-42-d-3.50,CONTCAR,64,Ti63 Al1,1105.3570633764582,4.570794862528288,-492.1392555,-7.6896758671875,"{""ALGO"": ""Fast"", ""AMIX"": 0.01, ""BMIX"": 0.0001, ""EDIFF"": 0.0001, ""EDIFFG"": -0.02, ""ENCUT"": 450.0, ""GGA"": ""Pe"", ""IBRION"": 2, ""ISIF"": 2, ""ISMEAR"": 1, ""ISPIN"": 1, ""ISTART"": 0, ""KPAR"": 4, ""LORBIT"": 10, ""LPLANE"": false, ""LREAL"": ""Auto"", ""NCORE"": 4, ""NELM"": 120, ""NSIM"": 1, ""NSW"": 60, ""PREC"": ""Accurate"", ""SIGMA"": 0.2, ""SYSTEM"": ""Al-42-d-3.50""}",Al-42-d-3.50,450.0,1,1,0.2,Pe,"{""Ti"": 4.0, ""Al"": 3.0}",255.0,,Al
Segregation-1sol-T2-Al-Al-43-d-3.50,Segregation-1sol,Segregation-1sol/T2/Al/Al-43-d-3.50,/mnt/e/Onedrive/TiGB-Project/Data/Segregation-1sol/T2/Al/Al-43-d-3.50,CONTCAR,64,Ti63 Al1,1105.3570633764582,4.570794862528288,-492.13560285,-7.68961879453125,"{""ALGO"": ""Normal"", ""AMIX"": 0.01, ""BMIX"": 0.0001, ""EDIFF"": 0.0001, ""EDIFFG"": -0.02, ""ENCUT"": 450.0, ""GGA"": ""Pe"", ""IBRION"": 2, ""ISIF"": 2, ""ISMEAR"": 1, ""ISPIN"": 1, ""ISTART"": 0, ""KPAR"": 4, ""LORBIT"": 10, ""LPLANE"": false, ""LREAL"": ""Auto"", ""NCORE"": 4, ""NELM"": 120, ""NSIM"": 1, ""NSW"": 60, ""PREC"": ""Accurate"", ""SIGMA"": 0.2, ""SYSTEM"": ""Al-43-d-3.50""}",Al-43-d-3.50,450.0,1,1,0.2,Pe,"{""Ti"": 4.0, ""Al"": 3.0}",255.0,,Al
Segregation-1sol-T2-Al-Al-44-d-4.19,Segregation-1sol,Segregation-1sol/T2/Al/Al-44-d-4.19,/mnt/e/Onedrive/TiGB-Project/Data/Segregation-1sol/T2/Al/Al-44-d-4.19,CONTCAR,64,Ti63 Al1,1105.3570633764582,4.570794862528288,-492.0399381,-7.6881240328125,"{""ALGO"": ""Fast"", ""AMIX"": 0.01, ""BMIX"": 0.0001, ""EDIFF"": 0.0001, ""EDIFFG"": -0.02, ""ENCUT"": 450.0, ""GGA"": ""Pe"", ""IBRION"": 2, ""ISIF"": 2, ""ISMEAR"": 1, ""ISPIN"": 1, ""ISTART"": 0, ""KPAR"": 4, ""LORBIT"": 10, ""LPLANE"": false, ""LREAL"": ""Auto"", ""NCORE"": 4, ""NELM"": 120, ""NSIM"": 1, ""NSW"": 60, ""PREC"": ""Accurate"", ""SIGMA"": 0.2, ""SYSTEM"": ""Al-44-d-4.19""}",Al-44-d-4.19,450.0,1,1,0.2,Pe,"{""Ti"": 4.0, ""Al"": 3.0}",255.0,,Al
Segregation-1sol-T2-Al-Al-45-d-4.19,Segregation-1sol,Segregation-1sol/T2/Al/Al-45-d-4.19,/mnt/e/Onedrive/TiGB-Project/Data/Segregation-1sol/T2/Al/Al-45-d-4.19,CONTCAR,64,Ti63 Al1,1105.3570633764582,4.570794862528288,-492.04232272,-7.6881612925,"{""ALGO"": ""Fast"", ""AMIX"": 0.01, ""BMIX"": 0.0001, ""EDIFF"": 0.0001, ""EDIFFG"": -0.02, ""ENCUT"": 450.0, ""GGA"": ""Pe"", ""IBRION"": 2, ""ISIF"": 2, ""ISMEAR"": 1, ""ISPIN"": 1, ""ISTART"": 0, ""KPAR"": 4, ""LORBIT"": 10, ""LPLANE"": false, ""LREAL"": ""Auto"", ""NCORE"": 4, ""NELM"": 120, ""NSIM"": 1, ""NSW"": 60, ""PREC"": ""Accurate"", ""SIGMA"": 0.2, ""SYSTEM"": ""Al-45-d-4.19""}",Al-45-d-4.19,450.0,1,1,0.2,Pe,"{""Ti"": 4.0, ""Al"": 3.0}",255.0,,Al
Segregation-1sol-T2-Al-Al-46-d-4.86,Segregation-1sol,Segregation-1sol/T2/Al/Al-46-d-4.86,/mnt/e/Onedrive/TiGB-Project/Data/Segregation-1sol/T2/Al/Al-46-d-4.86,CONTCAR,64,Ti63 Al1,1105.3570633764582,4.570794862528288,-492.08186737,-7.68877917765625,"{""ALGO"": ""Fast"", ""AMIX"": 0.01, ""BMIX"": 0.0001, ""EDIFF"": 0.0001, ""EDIFFG"": -0.02, ""ENCUT"": 450.0, ""GGA"": ""Pe"", ""IBRION"": 2, ""ISIF"": 2, ""ISMEAR"": 1, ""ISPIN"": 1, ""ISTART"": 0, ""KPAR"": 4, ""LORBIT"": 10, ""LPLANE"": false, ""LREAL"": ""Auto"", ""NCORE"": 4, ""NELM"": 120, ""NSIM"": 1, ""NSW"": 60, ""PREC"": ""Accurate"", ""SIGMA"": 0.2, ""SYSTEM"": ""Al-46-d-4.86""}",Al-46-d-4.86,450.0,1,1,0.2,Pe,"{""Ti"": 4.0, ""Al"": 3.0}",255.0,,Al
Segregation-1sol-T2-Al-Al-47-d-4.86,Segregation-1sol,Segregation-1sol/T2/Al/Al-47-d-4.86,/mnt/e/Onedrive/TiGB-Project/Data/Segregation-1sol/T2/Al/Al-47-d-4.86,CONTCAR,64,Ti63 Al1,1105.3570633764582,4.570794862528288,-492.05516704,-7.688361985,"{""ALGO"": ""Normal"", ""AMIX"": 0.01, ""BMIX"": 0.0001, ""EDIFF"": 0.0001, ""EDIFFG"": -0.02, ""ENCUT"": 450.0, ""GGA"": ""Pe"", ""IBRION"": 2, ""ISIF"": 2, ""ISMEAR"": 1, ""ISPIN"": 1, ""ISTART"": 0, ""KPAR"": 4, ""LORBIT"": 10, ""LPLANE"": false, ""LREAL"": ""Auto"", ""NCORE"": 4, ""NELM"": 120, ""NSIM"": 1, ""NSW"": 60, ""PREC"": ""Accurate"", ""SIGMA"": 0.2, ""SYSTEM"": ""Al-47-d-4.86""}",Al-47-d-4.86,450.0,1,1,0.2,Pe,"{""Ti"": 4.0, ""Al"": 3.0}",255.0,,Al
Segregation-1sol-T2-Al-Al-48-d-5.58,Segregation-1sol,Segregation-1sol/T2/Al/Al-48-d-5.58,/mnt/e/Onedrive/TiGB-Project/Data/Segregation-1sol/T2/Al/Al-48-d-5.58,CONTCAR,64,Ti63 Al1,1105.3570633764582,4.570794862528288,-492.11067961,-7.68922936890625,"{""ALGO"": ""Fast"", ""AMIX"": 0.01, ""BMIX"": 0.0001, ""EDIFF"": 0.0001, ""EDIFFG"": -0.02, ""ENCUT"": 450.0, ""GGA"": ""Pe"", ""IBRION"": 2, ""ISIF"": 2, ""ISMEAR"": 1, ""ISPIN"": 1, ""ISTART"": 0, ""KPAR"": 4, ""LORBIT"": 10, ""LPLANE"": false, ""LREAL"": ""Auto"", ""NCORE"": 4, ""NELM"": 120, ""NSIM"": 1, ""NSW"": 60, ""PREC"": ""Accurate"", ""SIGMA"": 0.2, ""SYSTEM"": ""Al-48-d-5.58""}",Al-48-d-5.58,450.0,1,1,0.2,Pe,"{""Ti"": 4.0, ""Al"": 3.0}",255.0,,Al
Segregation-1sol-T2-Al-Al-49-d-5.58,Segregation-1sol,Segregation-1sol/T2/Al/Al-49-d-5.58,/mnt/e/Onedrive/TiGB-Project/Data/Segregation-1sol/T2/Al/Al-49-d-5.58,CONTCAR,64,Ti63 Al1,1105.3570633764582,4.570794862528288,-492.1135162,-7.689273690625,"{""ALGO"": ""Normal"", ""AMIX"": 0.01, ""BMIX"": 0.0001, ""EDIFF"": 0.0001, ""EDIFFG"": -0.02, ""ENCUT"": 450.0, ""GGA"": ""Pe"", ""IBRION"": 2, ""ISIF"": 2, ""ISMEAR"": 1, ""ISPIN"": 1, ""ISTART"": 0, ""KPAR"": 4, ""LORBIT"": 10, ""LPLANE"": false, ""LREAL"": ""Auto"", ""NCORE"": 4, ""NELM"": 120, ""NSIM"": 1, ""NSW"": 60, ""PREC"": ""Accurate"", ""SIGMA"": 0.2, ""SYSTEM"": ""Al-49-d-5.58""}",Al-49-d-5.58,450.0,1,1,0.2,Pe,"{""Ti"": 4.0, ""Al"": 3.0}",255.0,,Al
Segregation-1sol-T2-Al-Al-50-d-6.29,Segregation-1sol,Segregation-1sol/T2/Al/Al-50-d-6.29,/mnt/e/Onedrive/TiGB-Project/Data/Segregation-1sol/T2/Al/Al-50-d-6.29,CONTCAR,64,Ti63 Al1,1105.3570633764582,4.570794862528288,-492.0519814,-7.688312209375,"{""ALGO"": ""Fast"", ""AMIX"": 0.01, ""BMIX"": 0.0001, ""EDIFF"": 0.0001, ""EDIFFG"": -0.02, ""ENCUT"": 450.0, ""GGA"": ""Pe"", ""IBRION"": 2, ""ISIF"": 2, ""ISMEAR"": 1, ""ISPIN"": 1, ""ISTART"": 0, ""KPAR"": 4, ""LORBIT"": 10, ""LPLANE"": false, ""LREAL"": ""Auto"", ""NCORE"": 4, ""NELM"": 120, ""NSIM"": 1, ""NSW"": 60, ""PREC"": ""Accurate"", ""SIGMA"": 0.2, ""SYSTEM"": ""Al-50-d-6.29""}",Al-50-d-6.29,450.0,1,1,0.2,Pe,"{""Ti"": 4.0, ""Al"": 3.0}",255.0,,Al
Segregation-1sol-T2-Al-Al-51-d-6.29,Segregation-1sol,Segregation-1sol/T2/Al/Al-51-d-6.29,/mnt/e/Onedrive/TiGB-Project/Data/Segregation-1sol/T2/Al/Al-51-d-6.29,CONTCAR,64,Ti63 Al1,1105.3570633764582,4.570794862528288,-492.05221418,-7.6883158465625,"{""ALGO"": ""Normal"", ""AMIX"": 0.01, ""BMIX"": 0.0001, ""EDIFF"": 0.0001, ""EDIFFG"": -0.02, ""ENCUT"": 450.0, ""GGA"": ""Pe"", ""IBRION"": 2, ""ISIF"": 2, ""ISMEAR"": 1, ""ISPIN"": 1, ""ISTART"": 0, ""KPAR"": 4, ""LORBIT"": 10, ""LPLANE"": false, ""LREAL"": ""Auto"", ""NCORE"": 4, ""NELM"": 120, ""NSIM"": 1, ""NSW"": 60, ""PREC"": ""Accurate"", ""SIGMA"": 0.2, ""SYSTEM"": ""Al-51-d-6.29""}",Al-51-d-6.29,450.0,1,1,0.2,Pe,"{""Ti"": 4.0, ""Al"": 3.0}",255.0,,Al
Segregation-1sol-T2-Al-Al-52-d-6.97,Segregation-1sol,Segregation-1sol/T2/Al/Al-52-d-6.97,/mnt/e/Onedrive/TiGB-Project/Data/Segregation-1sol/T2/Al/Al-52-d-6.97,CONTCAR,64,Ti63 Al1,1105.3570633764582,4.570794862528288,-492.04092914,-7.6881395178125,"{""ALGO"": ""Fast"", ""AMIX"": 0.01, ""BMIX"": 0.0001, ""EDIFF"": 0.0001, ""EDIFFG"": -0.02, ""ENCUT"": 450.0, ""GGA"": ""Pe"", ""IBRION"": 2, ""ISIF"": 2, ""ISMEAR"": 1, ""ISPIN"": 1, ""ISTART"": 0, ""KPAR"": 4, ""LORBIT"": 10, ""LPLANE"": false, ""LREAL"": ""Auto"", ""NCORE"": 4, ""NELM"": 120, ""NSIM"": 1, ""NSW"": 60, ""PREC"": ""Accurate"", ""SIGMA"": 0.2, ""SYSTEM"": ""Al-52-d-6.97""}",Al-52-d-6.97,450.0,1,1,0.2,Pe,"{""Ti"": 4.0, ""Al"": 3.0}",255.0,,Al
Segregation-1sol-T2-Al-Al-53-d-6.97,Segregation-1sol,Segregation-1sol/T2/Al/Al-53-d-6.97,/mnt/e/Onedrive/TiGB-Project/Data/Segregation-1sol/T2/Al/Al-53-d-6.97,CONTCAR,64,Ti63 Al1,1105.3570633764582,4.570794862528288,-492.03844429,-7.68810069203125,"{""ALGO"": ""Normal"", ""AMIX"": 0.01, ""BMIX"": 0.0001, ""EDIFF"": 0.0001, ""EDIFFG"": -0.02, ""ENCUT"": 450.0, ""GGA"": ""Pe"", ""IBRION"": 2, ""ISIF"": 2, ""ISMEAR"": 1, ""ISPIN"": 1, ""ISTART"": 0, ""KPAR"": 4, ""LORBIT"": 10, ""LPLANE"": false, ""LREAL"": ""Auto"", ""NCORE"": 4, ""NELM"": 120, ""NSIM"": 1, ""NSW"": 60, ""PREC"": ""Accurate"", ""SIGMA"": 0.2, ""SYSTEM"": ""Al-53-d-6.97""}",Al-53-d-6.97,450.0,1,1,0.2,Pe,"{""Ti"": 4.0, ""Al"": 3.0}",255.0,,Al