job_name,top_level,relpath,path,structure_file,num_atoms,formula,volume,density,energy_eV,energy_per_atom_eV,incar,incar_system,incar_encut,incar_ispin,incar_ismear,incar_sigma,incar_gga,potcar_nelectrons_map,potcar_total_nelectrons,parse_errors,solute
BondOrder-VacuumGB-T2-Al-Al-46-d-4.86,BondOrder-VacuumGB,BondOrder-VacuumGB/T2/Al/Al-46-d-4.86,/mnt/e/Onedrive/TiGB-Project/Data/BondOrder-VacuumGB/T2/Al/Al-46-d-4.86,CONTCAR,64,Ti63 Al1,1898.3108162424583,2.6615032392541385,-477.59789002,-7.4624670315625,"{""ALGO"": ""Fast"", ""AMIX"": 0.01, ""BMIX"": 0.0001, ""EDIFF"": 1e-05, ""EDIFFG"": -0.01, ""ENCUT"": 450.0, ""GGA"": ""Pe"", ""IBRION"": 2, ""ISIF"": 2, ""ISMEAR"": 1, ""ISPIN"": 1, ""ISTART"": 0, ""KPAR"": 1, ""LAECHG"": true, ""LCHARG"": true, ""LORBIT"": 10, ""LPLANE"": false, ""LREAL"": ""Auto"", ""NCORE"": 4, ""NELM"": 300, ""NSIM"": 1, ""NSW"": 2, ""PREC"": ""Accurate"", ""SIGMA"": 0.2, ""SYSTEM"": ""Al-46-d-4.86""}",Al-46-d-4.86,450.0,1,1,0.2,Pe,"{""Ti"": 4.0, ""Al"": 3.0}",255.0,,Al
BondOrder-VacuumGB-T2-Al-Al-47-d-4.86,BondOrder-VacuumGB,BondOrder-VacuumGB/T2/Al/Al-47-d-4.86,/mnt/e/Onedrive/TiGB-Project/Data/BondOrder-VacuumGB/T2/Al/Al-47-d-4.86,CONTCAR,64,Ti63 Al1,1898.3108162424583,2.6615032392541385,-477.75301271,-7.46489082359375,"{""ALGO"": ""Fast"", ""AMIX"": 0.01, ""BMIX"": 0.0001, ""EDIFF"": 1e-05, ""EDIFFG"": -0.01, ""ENCUT"": 450.0, ""GGA"": ""Pe"", ""IBRION"": 2, ""ISIF"": 2, ""ISMEAR"": 1, ""ISPIN"": 1, ""ISTART"": 0, ""KPAR"": 1, ""LAECHG"": true, ""LCHARG"": true, ""LORBIT"": 10, ""LPLANE"": false, ""LREAL"": ""Auto"", ""NCORE"": 4, ""NELM"": 300, ""NSIM"": 1, ""NSW"": 2, ""PREC"": ""Accurate"", ""SIGMA"": 0.2, ""SYSTEM"": ""Al-47-d-4.86""}",Al-47-d-4.86,450.0,1,1,0.2,Pe,"{""Ti"": 4.0, ""Al"": 3.0}",255.0,,Al
BondOrder-VacuumGB-T2-Al-Al-48-d-5.58,BondOrder-VacuumGB,BondOrder-VacuumGB/T2/Al/Al-48-d-5.58,/mnt/e/Onedrive/TiGB-Project/Data/BondOrder-VacuumGB/T2/Al/Al-48-d-5.58,CONTCAR,64,Ti63 Al1,1898.3108162424583,2.6615032392541385,-477.7419557,-7.4647180578125,"{""ALGO"": ""Fast"", ""AMIX"": 0.01, ""BMIX"": 0.0001, ""EDIFF"": 1e-05, ""EDIFFG"": -0.01, ""ENCUT"": 450.0, ""GGA"": ""Pe"", ""IBRION"": 2, ""ISIF"": 2, ""ISMEAR"": 1, ""ISPIN"": 1, ""ISTART"": 0, ""KPAR"": 1, ""LAECHG"": true, ""LCHARG"": true, ""LORBIT"": 10, ""LPLANE"": false, ""LREAL"": ""Auto"", ""NCORE"": 4, ""NELM"": 300, ""NSIM"": 1, ""NSW"": 2, ""PREC"": ""Accurate"", ""SIGMA"": 0.2, ""SYSTEM"": ""Al-48-d-5.58""}",Al-48-d-5.58,450.0,1,1,0.2,Pe,"{""Ti"": 4.0, ""Al"": 3.0}",255.0,,Al
BondOrder-VacuumGB-T2-Al-Al-49-d-5.58,BondOrder-VacuumGB,BondOrder-VacuumGB/T2/Al/Al-49-d-5.58,/mnt/e/Onedrive/TiGB-Project/Data/BondOrder-VacuumGB/T2/Al/Al-49-d-5.58,CONTCAR,64,Ti63 Al1,1898.3108162424583,2.6615032392541385,-476.49961846,-7.4453065384375,"{""ALGO"": ""Fast"", ""AMIX"": 0.01, ""BMIX"": 0.0001, ""EDIFF"": 1e-05, ""EDIFFG"": -0.01, ""ENCUT"": 450.0, ""GGA"": ""Pe"", ""IBRION"": 2, ""ISIF"": 2, ""ISMEAR"": 1, ""ISPIN"": 1, ""ISTART"": 0, ""KPAR"": 1, ""LAECHG"": true, ""LCHARG"": true, ""LORBIT"": 10, ""LPLANE"": false, ""LREAL"": ""Auto"", ""NCORE"": 4, ""NELM"": 300, ""NSIM"": 1, ""NSW"": 2, ""PREC"": ""Accurate"", ""SIGMA"": 0.2, ""SYSTEM"": ""Al-49-d-5.58""}",Al-49-d-5.58,450.0,1,1,0.2,Pe,"{""Ti"": 4.0, ""Al"": 3.0}",255.0,,Al
BondOrder-VacuumGB-T2-Al-Al-50-d-6.29,BondOrder-VacuumGB,BondOrder-VacuumGB/T2/Al/Al-50-d-6.29,/mnt/e/Onedrive/TiGB-Project/Data/BondOrder-VacuumGB/T2/Al/Al-50-d-6.29,CONTCAR,64,Ti63 Al1,1898.3108162424583,2.6615032392541385,-477.62670743,-7.46291730359375,"{""ALGO"": ""Fast"", ""AMIX"": 0.01, ""BMIX"": 0.0001, ""EDIFF"": 1e-05, ""EDIFFG"": -0.01, ""ENCUT"": 450.0, ""GGA"": ""Pe"", ""IBRION"": 2, ""ISIF"": 2, ""ISMEAR"": 1, ""ISPIN"": 1, ""ISTART"": 0, ""KPAR"": 1, ""LAECHG"": true, ""LCHARG"": true, ""LORBIT"": 10, ""LPLANE"": false, ""LREAL"": ""Auto"", ""NCORE"": 4, ""NELM"": 300, ""NSIM"": 1, ""NSW"": 2, ""PREC"": ""Accurate"", ""SIGMA"": 0.2, ""SYSTEM"": ""Al-50-d-6.29""}",Al-50-d-6.29,450.0,1,1,0.2,Pe,"{""Ti"": 4.0, ""Al"": 3.0}",255.0,,Al
BondOrder-VacuumGB-T2-Al-Al-51-d-6.29,BondOrder-VacuumGB,BondOrder-VacuumGB/T2/Al/Al-51-d-6.29,/mnt/e/Onedrive/TiGB-Project/Data/BondOrder-VacuumGB/T2/Al/Al-51-d-6.29,CONTCAR,64,Ti63 Al1,1898.3108162424583,2.6615032392541385,-477.63867421,-7.46310428453125,"{""ALGO"": ""Fast"", ""AMIX"": 0.01, ""BMIX"": 0.0001, ""EDIFF"": 1e-05, ""EDIFFG"": -0.01, ""ENCUT"": 450.0, ""GGA"": ""Pe"", ""IBRION"": 2, ""ISIF"": 2, ""ISMEAR"": 1, ""ISPIN"": 1, ""ISTART"": 0, ""KPAR"": 1, ""LAECHG"": true, ""LCHARG"": true, ""LORBIT"": 10, ""LPLANE"": false, ""LREAL"": ""Auto"", ""NCORE"": 4, ""NELM"": 300, ""NSIM"": 1, ""NSW"": 2, ""PREC"": ""Accurate"", ""SIGMA"": 0.2, ""SYSTEM"": ""Al-51-d-6.29""}",Al-51-d-6.29,450.0,1,1,0.2,Pe,"{""Ti"": 4.0, ""Al"": 3.0}",255.0,,Al
BondOrder-VacuumGB-T2-Al-Al-52-d-6.97,BondOrder-VacuumGB,BondOrder-VacuumGB/T2/Al/Al-52-d-6.97,/mnt/e/Onedrive/TiGB-Project/Data/BondOrder-VacuumGB/T2/Al/Al-52-d-6.97,CONTCAR,64,Ti63 Al1,1898.3108162424583,2.6615032392541385,-477.41715535,-7.45964305234375,"{""ALGO"": ""Fast"", ""AMIX"": 0.01, ""BMIX"": 0.0001, ""EDIFF"": 1e-05, ""EDIFFG"": -0.01, ""ENCUT"": 450.0, ""GGA"": ""Pe"", ""IBRION"": 2, ""ISIF"": 2, ""ISMEAR"": 1, ""ISPIN"": 1, ""ISTART"": 0, ""KPAR"": 1, ""LAECHG"": true, ""LCHARG"": true, ""LORBIT"": 10, ""LPLANE"": false, ""LREAL"": ""Auto"", ""NCORE"": 4, ""NELM"": 300, ""NSIM"": 1, ""NSW"": 2, ""PREC"": ""Accurate"", ""SIGMA"": 0.2, ""SYSTEM"": ""Al-52-d-6.97""}",Al-52-d-6.97,450.0,1,1,0.2,Pe,"{""Ti"": 4.0, ""Al"": 3.0}",255.0,,Al
BondOrder-VacuumGB-T2-Al-Al-53-d-6.97,BondOrder-VacuumGB,BondOrder-VacuumGB/T2/Al/Al-53-d-6.97,/mnt/e/Onedrive/TiGB-Project/Data/BondOrder-VacuumGB/T2/Al/Al-53-d-6.97,CONTCAR,64,Ti63 Al1,1898.3108162424583,2.6615032392541385,-477.50995196,-7.461092999375,"{""ALGO"": ""Fast"", ""AMIX"": 0.01, ""BMIX"": 0.0001, ""EDIFF"": 1e-05, ""EDIFFG"": -0.01, ""ENCUT"": 450.0, ""GGA"": ""Pe"", ""IBRION"": 2, ""ISIF"": 2, ""ISMEAR"": 1, ""ISPIN"": 1, ""ISTART"": 0, ""KPAR"": 1, ""LAECHG"": true, ""LCHARG"": true, ""LORBIT"": 10, ""LPLANE"": false, ""LREAL"": ""Auto"", ""NCORE"": 4, ""NELM"": 300, ""NSIM"": 1, ""NSW"": 2, ""PREC"": ""Accurate"", ""SIGMA"": 0.2, ""SYSTEM"": ""Al-53-d-6.97""}",Al-53-d-6.97,450.0,1,1,0.2,Pe,"{""Ti"": 4.0, ""Al"": 3.0}",255.0,,Al
BondOrder-VacuumGB-T2-V-V-32-d-0.00,BondOrder-VacuumGB,BondOrder-VacuumGB/T2/V/V-32-d-0.00,/mnt/e/Onedrive/TiGB-Project/Data/BondOrder-VacuumGB/T2/V/V-32-d-0.00,CONTCAR,64,Ti63 V1,1898.3108162424583,2.6824621105064597,-481.56313838,-7.5244240371875,"{""ALGO"": ""Fast"", ""AMIX"": 0.01, ""BMIX"": 0.0001, ""EDIFF"": 1e-05, ""EDIFFG"": -0.01, ""ENCUT"": 450.0, ""GGA"": ""Pe"", ""IBRION"": 2, ""ISIF"": 2, ""ISMEAR"": 1, ""ISPIN"": 1, ""ISTART"": 0, ""KPAR"": 1, ""LAECHG"": true, ""LCHARG"": true, ""LORBIT"": 10, ""LPLANE"": false, ""LREAL"": ""Auto"", ""NCORE"": 4, ""NELM"": 300, ""NSIM"": 1, ""NSW"": 2, ""PREC"": ""Accurate"", ""SIGMA"": 0.2, ""SYSTEM"": ""V-32-d-0.00""}",V-32-d-0.00,450.0,1,1,0.2,Pe,"{""Ti"": 4.0, ""V"": 5.0}",257.0,,V
BondOrder-VacuumGB-T2-V-V-33-d-0.00,BondOrder-VacuumGB,BondOrder-VacuumGB/T2/V/V-33-d-0.00,/mnt/e/Onedrive/TiGB-Project/Data/BondOrder-VacuumGB/T2/V/V-33-d-0.00,CONTCAR,64,Ti63 V1,1898.3108162424583,2.6824621105064597,-481.59521045,-7.52492516328125,"{""ALGO"": ""Fast"", ""AMIX"": 0.01, ""BMIX"": 0.0001, ""EDIFF"": 1e-05, ""EDIFFG"": -0.01, ""ENCUT"": 450.0, ""GGA"": ""Pe"", ""IBRION"": 2, ""ISIF"": 2, ""ISMEAR"": 1, ""ISPIN"": 1, ""ISTART"": 0, ""KPAR"": 1, ""LAECHG"": true, ""LCHARG"": true, ""LORBIT"": 10, ""LPLANE"": false, ""LREAL"": ""Auto"", ""NCORE"": 4, ""NELM"": 300, ""NSIM"": 1, ""NSW"": 2, ""PREC"": ""Accurate"", ""SIGMA"": 0.2, ""SYSTEM"": ""V-33-d-0.00""}",V-33-d-0.00,450.0,1,1,0.2,Pe,"{""Ti"": 4.0, ""V"": 5.0}",257.0,,V
BondOrder-VacuumGB-T2-V-V-34-d-0.63,BondOrder-VacuumGB,BondOrder-VacuumGB/T2/V/V-34-d-0.63,/mnt/e/Onedrive/TiGB-Project/Data/BondOrder-VacuumGB/T2/V/V-34-d-0.63,CONTCAR,64,Ti63 V1,1898.3108162424583,2.6824621105064597,-481.58357952,-7.52474343,"{""ALGO"": ""Fast"", ""AMIX"": 0.01, ""BMIX"": 0.0001, ""EDIFF"": 1e-05, ""EDIFFG"": -0.01, ""ENCUT"": 450.0, ""GGA"": ""Pe"", ""IBRION"": 2, ""ISIF"": 2, ""ISMEAR"": 1, ""ISPIN"": 1, ""ISTART"": 0, ""KPAR"": 1, ""LAECHG"": true, ""LCHARG"": true, ""LORBIT"": 10, ""LPLANE"": false, ""LREAL"": ""Auto"", ""NCORE"": 4, ""NELM"": 300, ""NSIM"": 1, ""NSW"": 2, ""PREC"": ""Accurate"", ""SIGMA"": 0.2, ""SYSTEM"": ""V-34-d-0.63""}",V-34-d-0.63,450.0,1,1,0.2,Pe,"{""Ti"": 4.0, ""V"": 5.0}",257.0,,V
BondOrder-VacuumGB-T2-V-V-35-d-0.63,BondOrder-VacuumGB,BondOrder-VacuumGB/T2/V/V-35-d-0.63,/mnt/e/Onedrive/TiGB-Project/Data/BondOrder-VacuumGB/T2/V/V-35-d-0.63,CONTCAR,64,Ti63 V1,1898.3108162424583,2.6824621105064597,-481.60259,-7.52504046875,"{""ALGO"": ""Fast"", ""AMIX"": 0.01, ""BMIX"": 0.0001, ""EDIFF"": 1e-05, ""EDIFFG"": -0.01, ""ENCUT"": 450.0, ""GGA"": ""Pe"", ""IBRION"": 2, ""ISIF"": 2, ""ISMEAR"": 1, ""ISPIN"": 1, ""ISTART"": 0, ""KPAR"": 1, ""LAECHG"": true, ""LCHARG"": true, ""LORBIT"": 10, ""LPLANE"": false, ""LREAL"": ""Auto"", ""NCORE"": 4, ""NELM"": 300, ""NSIM"": 1, ""NSW"": 2, ""PREC"": ""Accurate"", ""SIGMA"": 0.2, ""SYSTEM"": ""V-35-d-0.63""}",V-35-d-0.63,450.0,1,1,0.2,Pe,"{""Ti"": 4.0, ""V"": 5.0}",257.0,,V
BondOrder-VacuumGB-T2-V-V-36-d-1.39,BondOrder-VacuumGB,BondOrder-VacuumGB/T2/V/V-36-d-1.39,/mnt/e/Onedrive/TiGB-Project/Data/BondOrder-VacuumGB/T2/V/V-36-d-1.39,CONTCAR,64,Ti63 V1,1898.3108162424583,2.6824621105064597,-481.80517837,-7.52820591203125,"{""ALGO"": ""Fast"", ""AMIX"": 0.01, ""BMIX"": 0.0001, ""EDIFF"": 1e-05, ""EDIFFG"": -0.01, ""ENCUT"": 450.0, ""GGA"": ""Pe"", ""IBRION"": 2, ""ISIF"": 2, ""ISMEAR"": 1, ""ISPIN"": 1, ""ISTART"": 0, ""KPAR"": 1, ""LAECHG"": true, ""LCHARG"": true, ""LORBIT"": 10, ""LPLANE"": false, ""LREAL"": ""Auto"", ""NCORE"": 4, ""NELM"": 300, ""NSIM"": 1, ""NSW"": 2, ""PREC"": ""Accurate"", ""SIGMA"": 0.2, ""SYSTEM"": ""V-36-d-1.39""}",V-36-d-1.39,450.0,1,1,0.2,Pe,"{""Ti"": 4.0, ""V"": 5.0}",257.0,,V
BondOrder-VacuumGB-T2-V-V-37-d-1.39,BondOrder-VacuumGB,BondOrder-VacuumGB/T2/V/V-37-d-1.39,/mnt/e/Onedrive/TiGB-Project/Data/BondOrder-VacuumGB/T2/V/V-37-d-1.39,CONTCAR,64,Ti63 V1,1898.3108162424583,2.6824621105064597,-481.51549522,-7.5236796128125,"{""ALGO"": ""Fast"", ""AMIX"": 0.01, ""BMIX"": 0.0001, ""EDIFF"": 1e-05, ""EDIFFG"": -0.01, ""ENCUT"": 450.0, ""GGA"": ""Pe"", ""IBRION"": 2, ""ISIF"": 2, ""ISMEAR"": 1, ""ISPIN"": 1, ""ISTART"": 0, ""KPAR"": 1, ""LAECHG"": true, ""LCHARG"": true, ""LORBIT"": 10, ""LPLANE"": false, ""LREAL"": ""Auto"", ""NCORE"": 4, ""NELM"": 300, ""NSIM"": 1, ""NSW"": 2, ""PREC"": ""Accurate"", ""SIGMA"": 0.2, ""SYSTEM"": ""V-37-d-1.39""}",V-37-d-1.39,450.0,1,1,0.2,Pe,"{""Ti"": 4.0, ""V"": 5.0}",257.0,,V
BondOrder-VacuumGB-T2-V-V-38-d-2.12,BondOrder-VacuumGB,BondOrder-VacuumGB/T2/V/V-38-d-2.12,/mnt/e/Onedrive/TiGB-Project/Data/BondOrder-VacuumGB/T2/V/V-38-d-2.12,CONTCAR,64,Ti63 V1,1898.3108162424583,2.6824621105064597,-481.53233111,-7.52394267359375,"{""ALGO"": ""Fast"", ""AMIX"": 0.01, ""BMIX"": 0.0001, ""EDIFF"": 1e-05, ""EDIFFG"": -0.01, ""ENCUT"": 450.0, ""GGA"": ""Pe"", ""IBRION"": 2, ""ISIF"": 2, ""ISMEAR"": 1, ""ISPIN"": 1, ""ISTART"": 0, ""KPAR"": 1, ""LAECHG"": true, ""LCHARG"": true, ""LORBIT"": 10, ""LPLANE"": false, ""LREAL"": ""Auto"", ""NCORE"": 4, ""NELM"": 300, ""NSIM"": 1, ""NSW"": 2, ""PREC"": ""Accurate"", ""SIGMA"": 0.2, ""SYSTEM"": ""V-38-d-2.12""}",V-38-d-2.12,450.0,1,1,0.2,Pe,"{""Ti"": 4.0, ""V"": 5.0}",257.0,,V
BondOrder-VacuumGB-T2-V-V-39-d-2.12,BondOrder-VacuumGB,BondOrder-VacuumGB/T2/V/V-39-d-2.12,/mnt/e/Onedrive/TiGB-Project/Data/BondOrder-VacuumGB/T2/V/V-39-d-2.12,CONTCAR,64,Ti63 V1,1898.3108162424583,2.6824621105064597,-481.52473973,-7.52382405828125,"{""ALGO"": ""Fast"", ""AMIX"": 0.01, ""BMIX"": 0.0001, ""EDIFF"": 1e-05, ""EDIFFG"": -0.01, ""ENCUT"": 450.0, ""GGA"": ""Pe"", ""IBRION"": 2, ""ISIF"": 2, ""ISMEAR"": 1, ""ISPIN"": 1, ""ISTART"": 0, ""KPAR"": 1, ""LAECHG"": true, ""LCHARG"": true, ""LORBIT"": 10, ""LPLANE"": false, ""LREAL"": ""Auto"", ""NCORE"": 4, ""NELM"": 300, ""NSIM"": 1, ""NSW"": 2, ""PREC"": ""Accurate"", ""SIGMA"": 0.2, ""SYSTEM"": ""V-39-d-2.12""}",V-39-d-2.12,450.0,1,1,0.2,Pe,"{""Ti"": 4.0, ""V"": 5.0}",257.0,,V
BondOrder-VacuumGB-T2-V-V-40-d-2.77,BondOrder-VacuumGB,BondOrder-VacuumGB/T2/V/V-40-d-2.77,/mnt/e/Onedrive/TiGB-Project/Data/BondOrder-VacuumGB/T2/V/V-40-d-2.77,CONTCAR,64,Ti63 V1,1898.3108162424583,2.6824621105064597,-481.84122225,-7.52876909765625,"{""ALGO"": ""Fast"", ""AMIX"": 0.01, ""BMIX"": 0.0001, ""EDIFF"": 1e-05, ""EDIFFG"": -0.01, ""ENCUT"": 450.0, ""GGA"": ""Pe"", ""IBRION"": 2, ""ISIF"": 2, ""ISMEAR"": 1, ""ISPIN"": 1, ""ISTART"": 0, ""KPAR"": 1, ""LAECHG"": true, ""LCHARG"": true, ""LORBIT"": 10, ""LPLANE"": false, ""LREAL"": ""Auto"", ""NCORE"": 4, ""NELM"": 300, ""NSIM"": 1, ""NSW"": 2, ""PREC"": ""Accurate"", ""SIGMA"": 0.2, ""SYSTEM"": ""V-40-d-2.77""}",V-40-d-2.77,450.0,1,1,0.2,Pe,"{""Ti"": 4.0, ""V"": 5.0}",257.0,,V
BondOrder-VacuumGB-T2-V-V-41-d-2.77,BondOrder-VacuumGB,BondOrder-VacuumGB/T2/V/V-41-d-2.77,/mnt/e/Onedrive/TiGB-Project/Data/BondOrder-VacuumGB/T2/V/V-41-d-2.77,CONTCAR,64,Ti63 V1,1898.3108162424583,2.6824621105064597,-481.7789401,-7.5277959390625,"{""ALGO"": ""Fast"", ""AMIX"": 0.01, ""BMIX"": 0.0001, ""EDIFF"": 1e-05, ""EDIFFG"": -0.01, ""ENCUT"": 450.0, ""GGA"": ""Pe"", ""IBRION"": 2, ""ISIF"": 2, ""ISMEAR"": 1, ""ISPIN"": 1, ""ISTART"": 0, ""KPAR"": 1, ""LAECHG"": true, ""LCHARG"": true, ""LORBIT"": 10, ""LPLANE"": false, ""LREAL"": ""Auto"", ""NCORE"": 4, ""NELM"": 300, ""NSIM"": 1, ""NSW"": 2, ""PREC"": ""Accurate"", ""SIGMA"": 0.2, ""SYSTEM"": ""V-41-d-2.77""}",V-41-d-2.77,450.0,1,1,0.2,Pe,"{""Ti"": 4.0, ""V"": 5.0}",257.0,,V
BondOrder-VacuumGB-T2-V-V-42-d-3.50,BondOrder-VacuumGB,BondOrder-VacuumGB/T2/V/V-42-d-3.50,/mnt/e/Onedrive/TiGB-Project/Data/BondOrder-VacuumGB/T2/V/V-42-d-3.50,CONTCAR,64,Ti63 V1,1898.3108162424583,2.6824621105064597,-481.65730594,-7.5258954053125,"{""ALGO"": ""Fast"", ""AMIX"": 0.01, ""BMIX"": 0.0001, ""EDIFF"": 1e-05, ""EDIFFG"": -0.01, ""ENCUT"": 450.0, ""GGA"": ""Pe"", ""IBRION"": 2, ""ISIF"": 2, ""ISMEAR"": 1, ""ISPIN"": 1, ""ISTART"": 0, ""KPAR"": 1, ""LAECHG"": true, ""LCHARG"": true, ""LORBIT"": 10, ""LPLANE"": false, ""LREAL"": ""Auto"", ""NCORE"": 4, ""NELM"": 300, ""NSIM"": 1, ""NSW"": 2, ""PREC"": ""Accurate"", ""SIGMA"": 0.2, ""SYSTEM"": ""V-42-d-3.50""}",V-42-d-3.50,450.0,1,1,0.2,Pe,"{""Ti"": 4.0, ""V"": 5.0}",257.0,,V
BondOrder-VacuumGB-T2-V-V-43-d-3.50,BondOrder-VacuumGB,BondOrder-VacuumGB/T2/V/V-43-d-3.50,/mnt/e/Onedrive/TiGB-Project/Data/BondOrder-VacuumGB/T2/V/V-43-d-3.50,CONTCAR,64,Ti63 V1,1898.3108162424583,2.6824621105064597,-481.6034566,-7.525054009375,"{""ALGO"": ""Fast"", ""AMIX"": 0.01, ""BMIX"": 0.0001, ""EDIFF"": 1e-05, ""EDIFFG"": -0.01, ""ENCUT"": 450.0, ""GGA"": ""Pe"", ""IBRION"": 2, ""ISIF"": 2, ""ISMEAR"": 1, ""ISPIN"": 1, ""ISTART"": 0, ""KPAR"": 1, ""LAECHG"": true, ""LCHARG"": true, ""LORBIT"": 10, ""LPLANE"": false, ""LREAL"": ""Auto"", ""NCORE"": 4, ""NELM"": 300, ""NSIM"": 1, ""NSW"": 2, ""PREC"": ""Accurate"", ""SIGMA"": 0.2, ""SYSTEM"": ""V-43-d-3.50""}",V-43-d-3.50,450.0,1,1,0.2,Pe,"{""Ti"": 4.0, ""V"": 5.0}",257.0,,V
BondOrder-VacuumGB-T2-V-V-44-d-4.19,BondOrder-VacuumGB,BondOrder-VacuumGB/T2/V/V-44-d-4.19,/mnt/e/Onedrive/TiGB-Project/Data/BondOrder-VacuumGB/T2/V/V-44-d-4.19,CONTCAR,64,Ti63 V1,1898.3108162424583,2.6824621105064597,-481.80522578,-7.5282066528125,"{""ALGO"": ""Fast"", ""AMIX"": 0.01, ""BMIX"": 0.0001, ""EDIFF"": 1e-05, ""EDIFFG"": -0.01, ""ENCUT"": 450.0, ""GGA"": ""Pe"", ""IBRION"": 2, ""ISIF"": 2, ""ISMEAR"": 1, ""ISPIN"": 1, ""ISTART"": 0, ""KPAR"": 1, ""LAECHG"": true, ""LCHARG"": true, ""LORBIT"": 10, ""LPLANE"": false, ""LREAL"": ""Auto"", ""NCORE"": 4, ""NELM"": 300, ""NSIM"": 1, ""NSW"": 2, ""PREC"": ""Accurate"", ""SIGMA"": 0.2, ""SYSTEM"": ""V-44-d-4.19""}",V-44-d-4.19,450.0,1,1,0.2,Pe,"{""Ti"": 4.0, ""V"": 5.0}",257.0,,V
BondOrder-VacuumGB-T2-V-V-45-d-4.19,BondOrder-VacuumGB,BondOrder-VacuumGB/T2/V/V-45-d-4.19,/mnt/e/Onedrive/TiGB-Project/Data/BondOrder-VacuumGB/T2/V/V-45-d-4.19,CONTCAR,64,Ti63 V1,1898.3108162424583,2.6824621105064597,-481.34703238,-7.5210473809375,"{""ALGO"": ""Fast"", ""AMIX"": 0.01, ""BMIX"": 0.0001, ""EDIFF"": 1e-05, ""EDIFFG"": -0.01, ""ENCUT"": 450.0, ""GGA"": ""Pe"", ""IBRION"": 2, ""ISIF"": 2, ""ISMEAR"": 1, ""ISPIN"": 1, ""ISTART"": 0, ""KPAR"": 1, ""LAECHG"": true, ""LCHARG"": true, ""LORBIT"": 10, ""LPLANE"": false, ""LREAL"": ""Auto"", ""NCORE"": 4, ""NELM"": 300, ""NSIM"": 1, ""NSW"": 2, ""PREC"": ""Accurate"", ""SIGMA"": 0.2, ""SYSTEM"": ""V-45-d-4.19""}",V-45-d-4.19,450.0,1,1,0.2,Pe,"{""Ti"": 4.0, ""V"": 5.0}",257.0,,V
BondOrder-VacuumGB-T2-V-V-46-d-4.86,BondOrder-VacuumGB,BondOrder-VacuumGB/T2/V/V-46-d-4.86,/mnt/e/Onedrive/TiGB-Project/Data/BondOrder-VacuumGB/T2/V/V-46-d-4.86,CONTCAR,64,Ti63 V1,1898.3108162424583,2.6824621105064597,-481.29595021,-7.52024922203125,"{""ALGO"": ""Fast"", ""AMIX"": 0.01, ""BMIX"": 0.0001, ""EDIFF"": 1e-05, ""EDIFFG"": -0.01, ""ENCUT"": 450.0, ""GGA"": ""Pe"", ""IBRION"": 2, ""ISIF"": 2, ""ISMEAR"": 1, ""ISPIN"": 1, ""ISTART"": 0, ""KPAR"": 1, ""LAECHG"": true, ""LCHARG"": true, ""LORBIT"": 10, ""LPLANE"": false, ""LREAL"": ""Auto"", ""NCORE"": 4, ""NELM"": 300, ""NSIM"": 1, ""NSW"": 2, ""PREC"": ""Accurate"", ""SIGMA"": 0.2, ""SYSTEM"": ""V-46-d-4.86""}",V-46-d-4.86,450.0,1,1,0.2,Pe,"{""Ti"": 4.0, ""V"": 5.0}",257.0,,V
BondOrder-VacuumGB-T2-V-V-47-d-4.86,BondOrder-VacuumGB,BondOrder-VacuumGB/T2/V/V-47-d-4.86,/mnt/e/Onedrive/TiGB-Project/Data/BondOrder-VacuumGB/T2/V/V-47-d-4.86,CONTCAR,64,Ti63 V1,1898.3108162424583,2.6824621105064597,-481.6966233,-7.5265097390625,"{""ALGO"": ""Fast"", ""AMIX"": 0.01, ""BMIX"": 0.0001, ""EDIFF"": 1e-05, ""EDIFFG"": -0.01, ""ENCUT"": 450.0, ""GGA"": ""Pe"", ""IBRION"": 2, ""ISIF"": 2, ""ISMEAR"": 1, ""ISPIN"": 1, ""ISTART"": 0, ""KPAR"": 1, ""LAECHG"": true, ""LCHARG"": true, ""LORBIT"": 10, ""LPLANE"": false, ""LREAL"": ""Auto"", ""NCORE"": 4, ""NELM"": 300, ""NSIM"": 1, ""NSW"": 2, ""PREC"": ""Accurate"", ""SIGMA"": 0.2, ""SYSTEM"": ""V-47-d-4.86""}",V-47-d-4.86,450.0,1,1,0.2,Pe,"{""Ti"": 4.0, ""V"": 5.0}",257.0,,V
BondOrder-VacuumGB-T2-V-V-48-d-5.58,BondOrder-VacuumGB,BondOrder-VacuumGB/T2/V/V-48-d-5.58,/mnt/e/Onedrive/TiGB-Project/Data/BondOrder-VacuumGB/T2/V/V-48-d-5.58,CONTCAR,64,Ti63 V1,1898.3108162424583,2.6824621105064597,-481.64167821,-7.52565122203125,"{""ALGO"": ""Fast"", ""AMIX"": 0.01, ""BMIX"": 0.0001, ""EDIFF"": 1e-05, ""EDIFFG"": -0.01, ""ENCUT"": 450.0, ""GGA"": ""Pe"", ""IBRION"": 2, ""ISIF"": 2, ""ISMEAR"": 1, ""ISPIN"": 1, ""ISTART"": 0, ""KPAR"": 1, ""LAECHG"": true, ""LCHARG"": true, ""LORBIT"": 10, ""LPLANE"": false, ""LREAL"": ""Auto"", ""NCORE"": 4, ""NELM"": 300, ""NSIM"": 1, ""NSW"": 2, ""PREC"": ""Accurate"", ""SIGMA"": 0.2, ""SYSTEM"": ""V-48-d-5.58""}",V-48-d-5.58,450.0,1,1,0.2,Pe,"{""Ti"": 4.0, ""V"": 5.0}",257.0,,V
BondOrder-VacuumGB-T2-V-V-49-d-5.58,BondOrder-VacuumGB,BondOrder-VacuumGB/T2/V/V-49-d-5.58,/mnt/e/Onedrive/TiGB-Project/Data/BondOrder-VacuumGB/T2/V/V-49-d-5.58,CONTCAR,64,Ti63 V1,1898.3108162424583,2.6824621105064597,-481.33968318,-7.5209325496875,"{""ALGO"": ""Fast"", ""AMIX"": 0.01, ""BMIX"": 0.0001, ""EDIFF"": 1e-05, ""EDIFFG"": -0.01, ""ENCUT"": 450.0, ""GGA"": ""Pe"", ""IBRION"": 2, ""ISIF"": 2, ""ISMEAR"": 1, ""ISPIN"": 1, ""ISTART"": 0, ""KPAR"": 1, ""LAECHG"": true, ""LCHARG"": true, ""LORBIT"": 10, ""LPLANE"": false, ""LREAL"": ""Auto"", ""NCORE"": 4, ""NELM"": 300, ""NSIM"": 1, ""NSW"": 2, ""PREC"": ""Accurate"", ""SIGMA"": 0.2, ""SYSTEM"": ""V-49-d-5.58""}",V-49-d-5.58,450.0,1,1,0.2,Pe,"{""Ti"": 4.0, ""V"": 5.0}",257.0,,V