job_name,top_level,relpath,path,structure_file,num_atoms,formula,volume,density,energy_eV,energy_per_atom_eV,incar,incar_system,incar_encut,incar_ispin,incar_ismear,incar_sigma,incar_gga,potcar_nelectrons_map,potcar_total_nelectrons,parse_errors,solute
SegregationProfile-T2-V-V-51-d-6.29,SegregationProfile,SegregationProfile/T2/V/V-51-d-6.29,/mnt/e/Onedrive/TiGB-Project/Data/SegregationProfile/T2/V/V-51-d-6.29,CONTCAR,64,Ti63 V1,1105.3570633764582,4.606789070474978,-495.97670385,-7.74963599765625,"{""ALGO"": ""Normal"", ""AMIX"": 0.01, ""BMIX"": 0.0001, ""EDIFF"": 0.0001, ""EDIFFG"": -0.02, ""ENCUT"": 450.0, ""GGA"": ""Pe"", ""IBRION"": 2, ""ISIF"": 2, ""ISMEAR"": 1, ""ISPIN"": 1, ""ISTART"": 0, ""KPAR"": 4, ""LORBIT"": 10, ""LPLANE"": false, ""LREAL"": ""Auto"", ""NCORE"": 4, ""NELM"": 120, ""NSIM"": 1, ""NSW"": 60, ""PREC"": ""Accurate"", ""SIGMA"": 0.2, ""SYSTEM"": ""V-51-d-6.29""}",V-51-d-6.29,450.0,1,1,0.2,Pe,"{""Ti"": 4.0, ""V"": 5.0}",257.0,,V
SegregationProfile-T2-V-V-52-d-6.97,SegregationProfile,SegregationProfile/T2/V/V-52-d-6.97,/mnt/e/Onedrive/TiGB-Project/Data/SegregationProfile/T2/V/V-52-d-6.97,CONTCAR,64,Ti63 V1,1105.3570633764582,4.606789070474978,-495.87056199,-7.74797753109375,"{""ALGO"": ""Fast"", ""AMIX"": 0.01, ""BMIX"": 0.0001, ""EDIFF"": 0.0001, ""EDIFFG"": -0.02, ""ENCUT"": 450.0, ""GGA"": ""Pe"", ""IBRION"": 2, ""ISIF"": 2, ""ISMEAR"": 1, ""ISPIN"": 1, ""ISTART"": 0, ""KPAR"": 4, ""LORBIT"": 10, ""LPLANE"": false, ""LREAL"": ""Auto"", ""NCORE"": 4, ""NELM"": 120, ""NSIM"": 1, ""NSW"": 60, ""PREC"": ""Accurate"", ""SIGMA"": 0.2, ""SYSTEM"": ""V-52-d-6.97""}",V-52-d-6.97,450.0,1,1,0.2,Pe,"{""Ti"": 4.0, ""V"": 5.0}",257.0,,V
SegregationProfile-T2-V-V-53-d-6.97,SegregationProfile,SegregationProfile/T2/V/V-53-d-6.97,/mnt/e/Onedrive/TiGB-Project/Data/SegregationProfile/T2/V/V-53-d-6.97,CONTCAR,64,Ti63 V1,1105.3570633764582,4.606789070474978,-495.87342805,-7.74802231328125,"{""ALGO"": ""Normal"", ""AMIX"": 0.01, ""BMIX"": 0.0001, ""EDIFF"": 0.0001, ""EDIFFG"": -0.02, ""ENCUT"": 450.0, ""GGA"": ""Pe"", ""IBRION"": 2, ""ISIF"": 2, ""ISMEAR"": 1, ""ISPIN"": 1, ""ISTART"": 0, ""KPAR"": 4, ""LORBIT"": 10, ""LPLANE"": false, ""LREAL"": ""Auto"", ""NCORE"": 4, ""NELM"": 120, ""NSIM"": 1, ""NSW"": 60, ""PREC"": ""Accurate"", ""SIGMA"": 0.2, ""SYSTEM"": ""V-53-d-6.97""}",V-53-d-6.97,450.0,1,1,0.2,Pe,"{""Ti"": 4.0, ""V"": 5.0}",257.0,,V
Slab-1sol-C1-Al-SLAB-Al-SLAB-10,Slab-1sol,Slab-1sol/C1/Al-SLAB/Al-SLAB-10,/mnt/e/Onedrive/TiGB-Project/Data/Slab-1sol/C1/Al-SLAB/Al-SLAB-10,CONTCAR,28,Ti27 Al1,915.1478097085853,2.3940389883098323,-207.10904828,-7.396751724285714,"{""ALGO"": ""Fast"", ""AMIX"": 0.01, ""BMIX"": 0.0001, ""EDIFF"": 0.0001, ""EDIFFG"": -0.02, ""ENCUT"": 450.0, ""GGA"": ""Pe"", ""IBRION"": 2, ""ISIF"": 2, ""ISMEAR"": 1, ""ISPIN"": 1, ""ISTART"": 0, ""KPAR"": 2, ""LORBIT"": 10, ""LPLANE"": false, ""LREAL"": ""Auto"", ""NCORE"": 4, ""NELM"": 120, ""NSIM"": 1, ""NSW"": 60, ""PREC"": ""Accurate"", ""SIGMA"": 0.2, ""SYSTEM"": ""Al-slab-10""}",Al-slab-10,450.0,1,1,0.2,Pe,"{""Ti"": 4.0, ""Al"": 3.0}",111.0,,Al
Slab-1sol-C1-Al-SLAB-Al-SLAB-11,Slab-1sol,Slab-1sol/C1/Al-SLAB/Al-SLAB-11,/mnt/e/Onedrive/TiGB-Project/Data/Slab-1sol/C1/Al-SLAB/Al-SLAB-11,CONTCAR,28,Ti27 Al1,915.1478097085853,2.3940389883098323,-207.15730097,-7.398475034642857,"{""ALGO"": ""Fast"", ""AMIX"": 0.01, ""BMIX"": 0.0001, ""EDIFF"": 0.0001, ""EDIFFG"": -0.02, ""ENCUT"": 450.0, ""GGA"": ""Pe"", ""IBRION"": 2, ""ISIF"": 2, ""ISMEAR"": 1, ""ISPIN"": 1, ""ISTART"": 0, ""KPAR"": 2, ""LORBIT"": 10, ""LPLANE"": false, ""LREAL"": ""Auto"", ""NCORE"": 4, ""NELM"": 120, ""NSIM"": 1, ""NSW"": 60, ""PREC"": ""Accurate"", ""SIGMA"": 0.2, ""SYSTEM"": ""Al-slab-11""}",Al-slab-11,450.0,1,1,0.2,Pe,"{""Ti"": 4.0, ""Al"": 3.0}",111.0,,Al
Slab-1sol-C1-Al-SLAB-Al-SLAB-12,Slab-1sol,Slab-1sol/C1/Al-SLAB/Al-SLAB-12,/mnt/e/Onedrive/TiGB-Project/Data/Slab-1sol/C1/Al-SLAB/Al-SLAB-12,CONTCAR,28,Ti27 Al1,915.1478097085853,2.3940389883098323,-207.15765448,-7.39848766,"{""ALGO"": ""Fast"", ""AMIX"": 0.01, ""BMIX"": 0.0001, ""EDIFF"": 0.0001, ""EDIFFG"": -0.02, ""ENCUT"": 450.0, ""GGA"": ""Pe"", ""IBRION"": 2, ""ISIF"": 2, ""ISMEAR"": 1, ""ISPIN"": 1, ""ISTART"": 0, ""KPAR"": 2, ""LORBIT"": 10, ""LPLANE"": false, ""LREAL"": ""Auto"", ""NCORE"": 4, ""NELM"": 120, ""NSIM"": 1, ""NSW"": 60, ""PREC"": ""Accurate"", ""SIGMA"": 0.2, ""SYSTEM"": ""Al-slab-12""}",Al-slab-12,450.0,1,1,0.2,Pe,"{""Ti"": 4.0, ""Al"": 3.0}",111.0,,Al
Slab-1sol-C1-Al-SLAB-Al-SLAB-9,Slab-1sol,Slab-1sol/C1/Al-SLAB/Al-SLAB-9,/mnt/e/Onedrive/TiGB-Project/Data/Slab-1sol/C1/Al-SLAB/Al-SLAB-9,CONTCAR,28,Ti27 Al1,915.1478097085853,2.3940389883098323,-207.11194168,-7.39685506,"{""ALGO"": ""Fast"", ""AMIX"": 0.01, ""BMIX"": 0.0001, ""EDIFF"": 0.0001, ""EDIFFG"": -0.02, ""ENCUT"": 450.0, ""GGA"": ""Pe"", ""IBRION"": 2, ""ISIF"": 2, ""ISMEAR"": 1, ""ISPIN"": 1, ""ISTART"": 0, ""KPAR"": 2, ""LORBIT"": 10, ""LPLANE"": false, ""LREAL"": ""Auto"", ""NCORE"": 4, ""NELM"": 120, ""NSIM"": 1, ""NSW"": 60, ""PREC"": ""Accurate"", ""SIGMA"": 0.2, ""SYSTEM"": ""Al-slab-9""}",Al-slab-9,450.0,1,1,0.2,Pe,"{""Ti"": 4.0, ""Al"": 3.0}",111.0,"vasprun:no element found: line 5503, column 0",Al
Slab-1sol-C1-V-SLAB-V-SLAB-10,Slab-1sol,Slab-1sol/C1/V-SLAB/V-SLAB-10,/mnt/e/Onedrive/TiGB-Project/Data/Slab-1sol/C1/V-SLAB/V-SLAB-10,CONTCAR,28,Ti27 V1,915.1478097085853,2.4375144264548294,-210.98708917,-7.5352531846428565,"{""ALGO"": ""Fast"", ""AMIX"": 0.01, ""BMIX"": 0.0001, ""EDIFF"": 0.0001, ""EDIFFG"": -0.02, ""ENCUT"": 450.0, ""GGA"": ""Pe"", ""IBRION"": 2, ""ISIF"": 2, ""ISMEAR"": 1, ""ISPIN"": 1, ""ISTART"": 0, ""KPAR"": 2, ""LORBIT"": 10, ""LPLANE"": false, ""LREAL"": ""Auto"", ""NCORE"": 4, ""NELM"": 120, ""NSIM"": 1, ""NSW"": 60, ""PREC"": ""Accurate"", ""SIGMA"": 0.2, ""SYSTEM"": ""V-slab-10""}",V-slab-10,450.0,1,1,0.2,Pe,"{""Ti"": 4.0, ""V"": 5.0}",113.0,"vasprun:no element found: line 3942, column 0",V
Slab-1sol-C1-V-SLAB-V-SLAB-11,Slab-1sol,Slab-1sol/C1/V-SLAB/V-SLAB-11,/mnt/e/Onedrive/TiGB-Project/Data/Slab-1sol/C1/V-SLAB/V-SLAB-11,CONTCAR,28,Ti27 V1,915.1478097085853,2.4375144264548294,-211.00222452,-7.535793732857143,"{""ALGO"": ""Fast"", ""AMIX"": 0.01, ""BMIX"": 0.0001, ""EDIFF"": 0.0001, ""EDIFFG"": -0.02, ""ENCUT"": 450.0, ""GGA"": ""Pe"", ""IBRION"": 2, ""ISIF"": 2, ""ISMEAR"": 1, ""ISPIN"": 1, ""ISTART"": 0, ""KPAR"": 2, ""LORBIT"": 10, ""LPLANE"": false, ""LREAL"": ""Auto"", ""NCORE"": 4, ""NELM"": 120, ""NSIM"": 1, ""NSW"": 60, ""PREC"": ""Accurate"", ""SIGMA"": 0.2, ""SYSTEM"": ""V-slab-11""}",V-slab-11,450.0,1,1,0.2,Pe,"{""Ti"": 4.0, ""V"": 5.0}",113.0,,V
Slab-1sol-C1-V-SLAB-V-SLAB-12,Slab-1sol,Slab-1sol/C1/V-SLAB/V-SLAB-12,/mnt/e/Onedrive/TiGB-Project/Data/Slab-1sol/C1/V-SLAB/V-SLAB-12,CONTCAR,28,Ti27 V1,915.1478097085853,2.4375144264548294,-211.0044938,-7.535874778571428,"{""ALGO"": ""Fast"", ""AMIX"": 0.01, ""BMIX"": 0.0001, ""EDIFF"": 0.0001, ""EDIFFG"": -0.02, ""ENCUT"": 450.0, ""GGA"": ""Pe"", ""IBRION"": 2, ""ISIF"": 2, ""ISMEAR"": 1, ""ISPIN"": 1, ""ISTART"": 0, ""KPAR"": 2, ""LORBIT"": 10, ""LPLANE"": false, ""LREAL"": ""Auto"", ""NCORE"": 4, ""NELM"": 120, ""NSIM"": 1, ""NSW"": 60, ""PREC"": ""Accurate"", ""SIGMA"": 0.2, ""SYSTEM"": ""V-slab-12""}",V-slab-12,450.0,1,1,0.2,Pe,"{""Ti"": 4.0, ""V"": 5.0}",113.0,"vasprun:no element found: line 4501, column 0",V
Slab-1sol-C1-V-SLAB-V-SLAB-9,Slab-1sol,Slab-1sol/C1/V-SLAB/V-SLAB-9,/mnt/e/Onedrive/TiGB-Project/Data/Slab-1sol/C1/V-SLAB/V-SLAB-9,CONTCAR,28,Ti27 V1,915.1478097085853,2.4375144264548294,-210.98665775,-7.535237776785714,"{""ALGO"": ""Fast"", ""AMIX"": 0.01, ""BMIX"": 0.0001, ""EDIFF"": 0.0001, ""EDIFFG"": -0.02, ""ENCUT"": 450.0, ""GGA"": ""Pe"", ""IBRION"": 2, ""ISIF"": 2, ""ISMEAR"": 1, ""ISPIN"": 1, ""ISTART"": 0, ""KPAR"": 2, ""LORBIT"": 10, ""LPLANE"": false, ""LREAL"": ""Auto"", ""NCORE"": 4, ""NELM"": 120, ""NSIM"": 1, ""NSW"": 60, ""PREC"": ""Accurate"", ""SIGMA"": 0.2, ""SYSTEM"": ""V-slab-9""}",V-slab-9,450.0,1,1,0.2,Pe,"{""Ti"": 4.0, ""V"": 5.0}",113.0,"vasprun:no element found: line 4097, column 0",V
Slab-1sol-CSL13-Al-SLAB-Al-SLAB-29,Slab-1sol,Slab-1sol/CSL13/Al-SLAB/Al-SLAB-29,/mnt/e/Onedrive/TiGB-Project/Data/Slab-1sol/CSL13/Al-SLAB/Al-SLAB-29,CONTCAR,54,Ti53 Al1,1763.444840425979,2.414314331142951,-406.00497926,-7.5186107270370375,"{""ALGO"": ""Fast"", ""AMIX"": 0.01, ""BMIX"": 0.0001, ""EDIFF"": 0.0001, ""EDIFFG"": -0.02, ""ENCUT"": 450.0, ""GGA"": ""Pe"", ""IBRION"": 2, ""ISIF"": 2, ""ISMEAR"": 1, ""ISPIN"": 1, ""ISTART"": 0, ""KPAR"": 2, ""LORBIT"": 10, ""LPLANE"": false, ""LREAL"": ""Auto"", ""NCORE"": 4, ""NELM"": 120, ""NSIM"": 1, ""NSW"": 60, ""PREC"": ""Accurate"", ""SIGMA"": 0.2, ""SYSTEM"": ""Al-slab-29""}",Al-slab-29,450.0,1,1,0.2,Pe,"{""Ti"": 4.0, ""Al"": 3.0}",215.0,,Al
Slab-1sol-CSL13-Al-SLAB-Al-SLAB-30,Slab-1sol,Slab-1sol/CSL13/Al-SLAB/Al-SLAB-30,/mnt/e/Onedrive/TiGB-Project/Data/Slab-1sol/CSL13/Al-SLAB/Al-SLAB-30,CONTCAR,54,Ti53 Al1,1763.444840425979,2.414314331142951,-406.06254772,-7.51967680962963,"{""ALGO"": ""Fast"", ""AMIX"": 0.01, ""BMIX"": 0.0001, ""EDIFF"": 0.0001, ""EDIFFG"": -0.02, ""ENCUT"": 450.0, ""GGA"": ""Pe"", ""IBRION"": 2, ""ISIF"": 2, ""ISMEAR"": 1, ""ISPIN"": 1, ""ISTART"": 0, ""KPAR"": 2, ""LORBIT"": 10, ""LPLANE"": false, ""LREAL"": ""Auto"", ""NCORE"": 4, ""NELM"": 120, ""NSIM"": 1, ""NSW"": 60, ""PREC"": ""Accurate"", ""SIGMA"": 0.2, ""SYSTEM"": ""Al-slab-30""}",Al-slab-30,450.0,1,1,0.2,Pe,"{""Ti"": 4.0, ""Al"": 3.0}",215.0,"vasprun:no element found: line 5475, column 0",Al
Slab-1sol-CSL13-Al-SLAB-Al-SLAB-31,Slab-1sol,Slab-1sol/CSL13/Al-SLAB/Al-SLAB-31,/mnt/e/Onedrive/TiGB-Project/Data/Slab-1sol/CSL13/Al-SLAB/Al-SLAB-31,CONTCAR,54,Ti53 Al1,1763.444840425979,2.414314331142951,-406.07211262,-7.519853937407407,"{""ALGO"": ""Fast"", ""AMIX"": 0.01, ""BMIX"": 0.0001, ""EDIFF"": 0.0001, ""EDIFFG"": -0.02, ""ENCUT"": 450.0, ""GGA"": ""Pe"", ""IBRION"": 2, ""ISIF"": 2, ""ISMEAR"": 1, ""ISPIN"": 1, ""ISTART"": 0, ""KPAR"": 2, ""LORBIT"": 10, ""LPLANE"": false, ""LREAL"": ""Auto"", ""NCORE"": 4, ""NELM"": 120, ""NSIM"": 1, ""NSW"": 60, ""PREC"": ""Accurate"", ""SIGMA"": 0.2, ""SYSTEM"": ""Al-slab-31""}",Al-slab-31,450.0,1,1,0.2,Pe,"{""Ti"": 4.0, ""Al"": 3.0}",215.0,,Al
Slab-1sol-CSL13-Al-SLAB-Al-SLAB-32,Slab-1sol,Slab-1sol/CSL13/Al-SLAB/Al-SLAB-32,/mnt/e/Onedrive/TiGB-Project/Data/Slab-1sol/CSL13/Al-SLAB/Al-SLAB-32,CONTCAR,54,Ti53 Al1,1763.444840425979,2.414314331142951,-405.9954573,-7.518434394444444,"{""ALGO"": ""Fast"", ""AMIX"": 0.01, ""BMIX"": 0.0001, ""EDIFF"": 0.0001, ""EDIFFG"": -0.02, ""ENCUT"": 450.0, ""GGA"": ""Pe"", ""IBRION"": 2, ""ISIF"": 2, ""ISMEAR"": 1, ""ISPIN"": 1, ""ISTART"": 0, ""KPAR"": 2, ""LORBIT"": 10, ""LPLANE"": false, ""LREAL"": ""Auto"", ""NCORE"": 4, ""NELM"": 120, ""NSIM"": 1, ""NSW"": 60, ""PREC"": ""Accurate"", ""SIGMA"": 0.2, ""SYSTEM"": ""Al-slab-32""}",Al-slab-32,450.0,1,1,0.2,Pe,"{""Ti"": 4.0, ""Al"": 3.0}",215.0,,Al
Slab-1sol-CSL13-V-SLAB-V-SLAB-29,Slab-1sol,Slab-1sol/CSL13/V-SLAB/V-SLAB-29,/mnt/e/Onedrive/TiGB-Project/Data/Slab-1sol/CSL13/V-SLAB/V-SLAB-29,CONTCAR,54,Ti53 V1,1763.444840425979,2.436876109704113,-409.8447638,-7.589717848148148,"{""ALGO"": ""Fast"", ""AMIX"": 0.01, ""BMIX"": 0.0001, ""EDIFF"": 0.0001, ""EDIFFG"": -0.02, ""ENCUT"": 450.0, ""GGA"": ""Pe"", ""IBRION"": 2, ""ISIF"": 2, ""ISMEAR"": 1, ""ISPIN"": 1, ""ISTART"": 0, ""KPAR"": 2, ""LORBIT"": 10, ""LPLANE"": false, ""LREAL"": ""Auto"", ""NCORE"": 4, ""NELM"": 120, ""NSIM"": 1, ""NSW"": 60, ""PREC"": ""Accurate"", ""SIGMA"": 0.2, ""SYSTEM"": ""V-slab-29""}",V-slab-29,450.0,1,1,0.2,Pe,"{""Ti"": 4.0, ""V"": 5.0}",217.0,"vasprun:no element found: line 6849, column 0",V
Slab-1sol-CSL13-V-SLAB-V-SLAB-30,Slab-1sol,Slab-1sol/CSL13/V-SLAB/V-SLAB-30,/mnt/e/Onedrive/TiGB-Project/Data/Slab-1sol/CSL13/V-SLAB/V-SLAB-30,CONTCAR,54,Ti53 V1,1763.444840425979,2.436876109704113,-409.87846428,-7.590341931111111,"{""ALGO"": ""Fast"", ""AMIX"": 0.01, ""BMIX"": 0.0001, ""EDIFF"": 0.0001, ""EDIFFG"": -0.02, ""ENCUT"": 450.0, ""GGA"": ""Pe"", ""IBRION"": 2, ""ISIF"": 2, ""ISMEAR"": 1, ""ISPIN"": 1, ""ISTART"": 0, ""KPAR"": 2, ""LORBIT"": 10, ""LPLANE"": false, ""LREAL"": ""Auto"", ""NCORE"": 4, ""NELM"": 120, ""NSIM"": 1, ""NSW"": 60, ""PREC"": ""Accurate"", ""SIGMA"": 0.2, ""SYSTEM"": ""V-slab-30""}",V-slab-30,450.0,1,1,0.2,Pe,"{""Ti"": 4.0, ""V"": 5.0}",217.0,,V
Slab-1sol-CSL13-V-SLAB-V-SLAB-31,Slab-1sol,Slab-1sol/CSL13/V-SLAB/V-SLAB-31,/mnt/e/Onedrive/TiGB-Project/Data/Slab-1sol/CSL13/V-SLAB/V-SLAB-31,CONTCAR,54,Ti53 V1,1763.444840425979,2.436876109704113,-409.87459222,-7.590270226296297,"{""ALGO"": ""Fast"", ""AMIX"": 0.01, ""BMIX"": 0.0001, ""EDIFF"": 0.0001, ""EDIFFG"": -0.02, ""ENCUT"": 450.0, ""GGA"": ""Pe"", ""IBRION"": 2, ""ISIF"": 2, ""ISMEAR"": 1, ""ISPIN"": 1, ""ISTART"": 0, ""KPAR"": 2, ""LORBIT"": 10, ""LPLANE"": false, ""LREAL"": ""Auto"", ""NCORE"": 4, ""NELM"": 120, ""NSIM"": 1, ""NSW"": 60, ""PREC"": ""Accurate"", ""SIGMA"": 0.2, ""SYSTEM"": ""V-slab-31""}",V-slab-31,450.0,1,1,0.2,Pe,"{""Ti"": 4.0, ""V"": 5.0}",217.0,,V
Slab-1sol-CSL13-V-SLAB-V-SLAB-32,Slab-1sol,Slab-1sol/CSL13/V-SLAB/V-SLAB-32,/mnt/e/Onedrive/TiGB-Project/Data/Slab-1sol/CSL13/V-SLAB/V-SLAB-32,CONTCAR,54,Ti53 V1,1763.444840425979,2.436876109704113,-409.89973795,-7.590735887962962,"{""ALGO"": ""Fast"", ""AMIX"": 0.01, ""BMIX"": 0.0001, ""EDIFF"": 0.0001, ""EDIFFG"": -0.02, ""ENCUT"": 450.0, ""GGA"": ""Pe"", ""IBRION"": 2, ""ISIF"": 2, ""ISMEAR"": 1, ""ISPIN"": 1, ""ISTART"": 0, ""KPAR"": 2, ""LORBIT"": 10, ""LPLANE"": false, ""LREAL"": ""Auto"", ""NCORE"": 4, ""NELM"": 120, ""NSIM"": 1, ""NSW"": 60, ""PREC"": ""Accurate"", ""SIGMA"": 0.2, ""SYSTEM"": ""V-slab-32""}",V-slab-32,450.0,1,1,0.2,Pe,"{""Ti"": 4.0, ""V"": 5.0}",217.0,"vasprun:no element found: line 4908, column 0",V
Slab-1sol-CSL7-Al-SLAB-Al-SLAB-10,Slab-1sol,Slab-1sol/CSL7/Al-SLAB/Al-SLAB-10,/mnt/e/Onedrive/TiGB-Project/Data/Slab-1sol/CSL7/Al-SLAB/Al-SLAB-10,CONTCAR,26,Ti25 Al1,906.2619337821728,2.2420995669593067,-189.75000401,-7.298077077307692,"{""ALGO"": ""Fast"", ""AMIX"": 0.01, ""BMIX"": 0.0001, ""EDIFF"": 0.0001, ""EDIFFG"": -0.02, ""ENCUT"": 450.0, ""GGA"": ""Pe"", ""IBRION"": 2, ""ISIF"": 2, ""ISMEAR"": 1, ""ISPIN"": 1, ""ISTART"": 0, ""KPAR"": 2, ""LORBIT"": 10, ""LPLANE"": false, ""LREAL"": ""Auto"", ""NCORE"": 4, ""NELM"": 120, ""NSIM"": 1, ""NSW"": 60, ""PREC"": ""Accurate"", ""SIGMA"": 0.2, ""SYSTEM"": ""Al-slab-10""}",Al-slab-10,450.0,1,1,0.2,Pe,"{""Ti"": 4.0, ""Al"": 3.0}",103.0,,Al
Slab-1sol-CSL7-Al-SLAB-Al-SLAB-11,Slab-1sol,Slab-1sol/CSL7/Al-SLAB/Al-SLAB-11,/mnt/e/Onedrive/TiGB-Project/Data/Slab-1sol/CSL7/Al-SLAB/Al-SLAB-11,CONTCAR,26,Ti25 Al1,906.2619337821728,2.2420995669593067,-189.68038218,-7.295399314615385,"{""ALGO"": ""Fast"", ""AMIX"": 0.01, ""BMIX"": 0.0001, ""EDIFF"": 0.0001, ""EDIFFG"": -0.02, ""ENCUT"": 450.0, ""GGA"": ""Pe"", ""IBRION"": 2, ""ISIF"": 2, ""ISMEAR"": 1, ""ISPIN"": 1, ""ISTART"": 0, ""KPAR"": 2, ""LORBIT"": 10, ""LPLANE"": false, ""LREAL"": ""Auto"", ""NCORE"": 4, ""NELM"": 120, ""NSIM"": 1, ""NSW"": 60, ""PREC"": ""Accurate"", ""SIGMA"": 0.2, ""SYSTEM"": ""Al-slab-11""}",Al-slab-11,450.0,1,1,0.2,Pe,"{""Ti"": 4.0, ""Al"": 3.0}",103.0,"vasprun:no element found: line 3366, column 0",Al
Slab-1sol-CSL7-Al-SLAB-Al-SLAB-12,Slab-1sol,Slab-1sol/CSL7/Al-SLAB/Al-SLAB-12,/mnt/e/Onedrive/TiGB-Project/Data/Slab-1sol/CSL7/Al-SLAB/Al-SLAB-12,CONTCAR,26,Ti25 Al1,906.2619337821728,2.2420995669593067,-189.89999839,-7.303846091923077,"{""ALGO"": ""Fast"", ""AMIX"": 0.01, ""BMIX"": 0.0001, ""EDIFF"": 0.0001, ""EDIFFG"": -0.02, ""ENCUT"": 450.0, ""GGA"": ""Pe"", ""IBRION"": 2, ""ISIF"": 2, ""ISMEAR"": 1, ""ISPIN"": 1, ""ISTART"": 0, ""KPAR"": 2, ""LORBIT"": 10, ""LPLANE"": false, ""LREAL"": ""Auto"", ""NCORE"": 4, ""NELM"": 120, ""NSIM"": 1, ""NSW"": 60, ""PREC"": ""Accurate"", ""SIGMA"": 0.2, ""SYSTEM"": ""Al-slab-12""}",Al-slab-12,450.0,1,1,0.2,Pe,"{""Ti"": 4.0, ""Al"": 3.0}",103.0,"vasprun:no element found: line 4950, column 0",Al
Slab-1sol-CSL7-Al-SLAB-Al-SLAB-13,Slab-1sol,Slab-1sol/CSL7/Al-SLAB/Al-SLAB-13,/mnt/e/Onedrive/TiGB-Project/Data/Slab-1sol/CSL7/Al-SLAB/Al-SLAB-13,CONTCAR,26,Ti25 Al1,906.2619337821728,2.2420995669593067,-189.90223681,-7.303932185,"{""ALGO"": ""Fast"", ""AMIX"": 0.01, ""BMIX"": 0.0001, ""EDIFF"": 0.0001, ""EDIFFG"": -0.02, ""ENCUT"": 450.0, ""GGA"": ""Pe"", ""IBRION"": 2, ""ISIF"": 2, ""ISMEAR"": 1, ""ISPIN"": 1, ""ISTART"": 0, ""KPAR"": 2, ""LORBIT"": 10, ""LPLANE"": false, ""LREAL"": ""Auto"", ""NCORE"": 4, ""NELM"": 120, ""NSIM"": 1, ""NSW"": 60, ""PREC"": ""Accurate"", ""SIGMA"": 0.2, ""SYSTEM"": ""Al-slab-13""}",Al-slab-13,450.0,1,1,0.2,Pe,"{""Ti"": 4.0, ""Al"": 3.0}",103.0,"vasprun:no element found: line 3520, column 0",Al
Slab-1sol-CSL7-V-SLAB-V-SLAB-10,Slab-1sol,Slab-1sol/CSL7/V-SLAB/V-SLAB-10,/mnt/e/Onedrive/TiGB-Project/Data/Slab-1sol/CSL7/V-SLAB/V-SLAB-10,CONTCAR,26,Ti25 V1,906.2619337821728,2.2860012807038874,-193.56920541,-7.444969438846154,"{""ALGO"": ""Fast"", ""AMIX"": 0.01, ""BMIX"": 0.0001, ""EDIFF"": 0.0001, ""EDIFFG"": -0.02, ""ENCUT"": 450.0, ""GGA"": ""Pe"", ""IBRION"": 2, ""ISIF"": 2, ""ISMEAR"": 1, ""ISPIN"": 1, ""ISTART"": 0, ""KPAR"": 2, ""LORBIT"": 10, ""LPLANE"": false, ""LREAL"": ""Auto"", ""NCORE"": 4, ""NELM"": 120, ""NSIM"": 1, ""NSW"": 60, ""PREC"": ""Accurate"", ""SIGMA"": 0.2, ""SYSTEM"": ""V-slab-10""}",V-slab-10,450.0,1,1,0.2,Pe,"{""Ti"": 4.0, ""V"": 5.0}",105.0,"vasprun:no element found: line 6867, column 0",V
Slab-1sol-CSL7-V-SLAB-V-SLAB-11,Slab-1sol,Slab-1sol/CSL7/V-SLAB/V-SLAB-11,/mnt/e/Onedrive/TiGB-Project/Data/Slab-1sol/CSL7/V-SLAB/V-SLAB-11,CONTCAR,26,Ti25 V1,906.2619337821728,2.2860012807038874,-193.5742077,-7.4451618346153845,"{""ALGO"": ""Fast"", ""AMIX"": 0.01, ""BMIX"": 0.0001, ""EDIFF"": 0.0001, ""EDIFFG"": -0.02, ""ENCUT"": 450.0, ""GGA"": ""Pe"", ""IBRION"": 2, ""ISIF"": 2, ""ISMEAR"": 1, ""ISPIN"": 1, ""ISTART"": 0, ""KPAR"": 2, ""LORBIT"": 10, ""LPLANE"": false, ""LREAL"": ""Auto"", ""NCORE"": 4, ""NELM"": 120, ""NSIM"": 1, ""NSW"": 60, ""PREC"": ""Accurate"", ""SIGMA"": 0.2, ""SYSTEM"": ""V-slab-11""}",V-slab-11,450.0,1,1,0.2,Pe,"{""Ti"": 4.0, ""V"": 5.0}",105.0,"vasprun:no element found: line 3476, column 0",V
Slab-1sol-CSL7-V-SLAB-V-SLAB-12,Slab-1sol,Slab-1sol/CSL7/V-SLAB/V-SLAB-12,/mnt/e/Onedrive/TiGB-Project/Data/Slab-1sol/CSL7/V-SLAB/V-SLAB-12,CONTCAR,26,Ti25 V1,906.2619337821728,2.2860012807038874,-193.61123935,-7.446586128846154,"{""ALGO"": ""Fast"", ""AMIX"": 0.01, ""BMIX"": 0.0001, ""EDIFF"": 0.0001, ""EDIFFG"": -0.02, ""ENCUT"": 450.0, ""GGA"": ""Pe"", ""IBRION"": 2, ""ISIF"": 2, ""ISMEAR"": 1, ""ISPIN"": 1, ""ISTART"": 0, ""KPAR"": 2, ""LORBIT"": 10, ""LPLANE"": false, ""LREAL"": ""Auto"", ""NCORE"": 4, ""NELM"": 120, ""NSIM"": 1, ""NSW"": 60, ""PREC"": ""Accurate"", ""SIGMA"": 0.2, ""SYSTEM"": ""V-slab-12""}",V-slab-12,450.0,1,1,0.2,Pe,"{""Ti"": 4.0, ""V"": 5.0}",105.0,"vasprun:no element found: line 4493, column 0",V
Slab-1sol-CSL7-V-SLAB-V-SLAB-13,Slab-1sol,Slab-1sol/CSL7/V-SLAB/V-SLAB-13,/mnt/e/Onedrive/TiGB-Project/Data/Slab-1sol/CSL7/V-SLAB/V-SLAB-13,CONTCAR,26,Ti25 V1,906.2619337821728,2.2860012807038874,-193.62420947,-7.447084979615385,"{""ALGO"": ""Fast"", ""AMIX"": 0.01, ""BMIX"": 0.0001, ""EDIFF"": 0.0001, ""EDIFFG"": -0.02, ""ENCUT"": 450.0, ""GGA"": ""Pe"", ""IBRION"": 2, ""ISIF"": 2, ""ISMEAR"": 1, ""ISPIN"": 1, ""ISTART"": 0, ""KPAR"": 2, ""LORBIT"": 10, ""LPLANE"": false, ""LREAL"": ""Auto"", ""NCORE"": 4, ""NELM"": 120, ""NSIM"": 1, ""NSW"": 60, ""PREC"": ""Accurate"", ""SIGMA"": 0.2, ""SYSTEM"": ""V-slab-13""}",V-slab-13,450.0,1,1,0.2,Pe,"{""Ti"": 4.0, ""V"": 5.0}",105.0,"vasprun:no element found: line 4404, column 0",V