job_name,top_level,relpath,path,structure_file,num_atoms,formula,volume,density,energy_eV,energy_per_atom_eV,incar,incar_system,incar_encut,incar_ispin,incar_ismear,incar_sigma,incar_gga,potcar_nelectrons_map,potcar_total_nelectrons,parse_errors,solute
BondOrder-VacuumGB-C1-Al-Al-25-d-0.00,BondOrder-VacuumGB,BondOrder-VacuumGB/C1/Al/Al-25-d-0.00,/mnt/e/Onedrive/TiGB-Project/Data/BondOrder-VacuumGB/C1/Al/Al-25-d-0.00,CONTCAR,52,Ti51 Al1,1362.6127680076254,3.007853881473104,-391.85014244,-7.5355796623076925,"{""ALGO"": ""Fast"", ""AMIX"": 0.01, ""BMIX"": 0.0001, ""EDIFF"": 1e-05, ""EDIFFG"": -0.01, ""ENCUT"": 450.0, ""GGA"": ""Pe"", ""IBRION"": 2, ""ISIF"": 2, ""ISMEAR"": 1, ""ISPIN"": 1, ""ISTART"": 0, ""KPAR"": 1, ""LAECHG"": true, ""LCHARG"": true, ""LORBIT"": 10, ""LPLANE"": false, ""LREAL"": ""Auto"", ""NCORE"": 4, ""NELM"": 300, ""NSIM"": 1, ""NSW"": 2, ""PREC"": ""Accurate"", ""SIGMA"": 0.2, ""SYSTEM"": ""Al-25-d-0.00""}",Al-25-d-0.00,450.0,1,1,0.2,Pe,"{""Ti"": 4.0, ""Al"": 3.0}",207.0,,Al
BondOrder-VacuumGB-C1-Al-Al-26-d-0.00,BondOrder-VacuumGB,BondOrder-VacuumGB/C1/Al/Al-26-d-0.00,/mnt/e/Onedrive/TiGB-Project/Data/BondOrder-VacuumGB/C1/Al/Al-26-d-0.00,CONTCAR,52,Ti51 Al1,1362.6127680076254,3.007853881473104,-390.81375913,-7.515649214038461,"{""ALGO"": ""Fast"", ""AMIX"": 0.01, ""BMIX"": 0.0001, ""EDIFF"": 1e-05, ""EDIFFG"": -0.01, ""ENCUT"": 450.0, ""GGA"": ""Pe"", ""IBRION"": 2, ""ISIF"": 2, ""ISMEAR"": 1, ""ISPIN"": 1, ""ISTART"": 0, ""KPAR"": 1, ""LAECHG"": true, ""LCHARG"": true, ""LORBIT"": 10, ""LPLANE"": false, ""LREAL"": ""Auto"", ""NCORE"": 4, ""NELM"": 300, ""NSIM"": 1, ""NSW"": 2, ""PREC"": ""Accurate"", ""SIGMA"": 0.2, ""SYSTEM"": ""Al-26-d-0.00""}",Al-26-d-0.00,450.0,1,1,0.2,Pe,"{""Ti"": 4.0, ""Al"": 3.0}",207.0,,Al
BondOrder-VacuumGB-C1-Al-Al-27-d-1.38,BondOrder-VacuumGB,BondOrder-VacuumGB/C1/Al/Al-27-d-1.38,/mnt/e/Onedrive/TiGB-Project/Data/BondOrder-VacuumGB/C1/Al/Al-27-d-1.38,CONTCAR,52,Ti51 Al1,1362.6127680076254,3.007853881473104,-391.17956995,-7.5226840374999995,"{""ALGO"": ""Fast"", ""AMIX"": 0.01, ""BMIX"": 0.0001, ""EDIFF"": 1e-05, ""EDIFFG"": -0.01, ""ENCUT"": 450.0, ""GGA"": ""Pe"", ""IBRION"": 2, ""ISIF"": 2, ""ISMEAR"": 1, ""ISPIN"": 1, ""ISTART"": 0, ""KPAR"": 1, ""LAECHG"": true, ""LCHARG"": true, ""LORBIT"": 10, ""LPLANE"": false, ""LREAL"": ""Auto"", ""NCORE"": 4, ""NELM"": 300, ""NSIM"": 1, ""NSW"": 2, ""PREC"": ""Accurate"", ""SIGMA"": 0.2, ""SYSTEM"": ""Al-27-d-1.38""}",Al-27-d-1.38,450.0,1,1,0.2,Pe,"{""Ti"": 4.0, ""Al"": 3.0}",207.0,,Al
BondOrder-VacuumGB-C1-Al-Al-28-d-1.38,BondOrder-VacuumGB,BondOrder-VacuumGB/C1/Al/Al-28-d-1.38,/mnt/e/Onedrive/TiGB-Project/Data/BondOrder-VacuumGB/C1/Al/Al-28-d-1.38,CONTCAR,52,Ti51 Al1,1362.6127680076254,3.007853881473104,-391.01722782,-7.519562073461539,"{""ALGO"": ""Fast"", ""AMIX"": 0.01, ""BMIX"": 0.0001, ""EDIFF"": 1e-05, ""EDIFFG"": -0.01, ""ENCUT"": 450.0, ""GGA"": ""Pe"", ""IBRION"": 2, ""ISIF"": 2, ""ISMEAR"": 1, ""ISPIN"": 1, ""ISTART"": 0, ""KPAR"": 1, ""LAECHG"": true, ""LCHARG"": true, ""LORBIT"": 10, ""LPLANE"": false, ""LREAL"": ""Auto"", ""NCORE"": 4, ""NELM"": 300, ""NSIM"": 1, ""NSW"": 2, ""PREC"": ""Accurate"", ""SIGMA"": 0.2, ""SYSTEM"": ""Al-28-d-1.38""}",Al-28-d-1.38,450.0,1,1,0.2,Pe,"{""Ti"": 4.0, ""Al"": 3.0}",207.0,,Al
BondOrder-VacuumGB-C1-Al-Al-29-d-2.59,BondOrder-VacuumGB,BondOrder-VacuumGB/C1/Al/Al-29-d-2.59,/mnt/e/Onedrive/TiGB-Project/Data/BondOrder-VacuumGB/C1/Al/Al-29-d-2.59,CONTCAR,52,Ti51 Al1,1362.6127680076254,3.007853881473104,-391.08793839,-7.520921892115384,"{""ALGO"": ""Fast"", ""AMIX"": 0.01, ""BMIX"": 0.0001, ""EDIFF"": 1e-05, ""EDIFFG"": -0.01, ""ENCUT"": 450.0, ""GGA"": ""Pe"", ""IBRION"": 2, ""ISIF"": 2, ""ISMEAR"": 1, ""ISPIN"": 1, ""ISTART"": 0, ""KPAR"": 1, ""LAECHG"": true, ""LCHARG"": true, ""LORBIT"": 10, ""LPLANE"": false, ""LREAL"": ""Auto"", ""NCORE"": 4, ""NELM"": 300, ""NSIM"": 1, ""NSW"": 2, ""PREC"": ""Accurate"", ""SIGMA"": 0.2, ""SYSTEM"": ""Al-29-d-2.59""}",Al-29-d-2.59,450.0,1,1,0.2,Pe,"{""Ti"": 4.0, ""Al"": 3.0}",207.0,,Al
BondOrder-VacuumGB-C1-Al-Al-30-d-2.59,BondOrder-VacuumGB,BondOrder-VacuumGB/C1/Al/Al-30-d-2.59,/mnt/e/Onedrive/TiGB-Project/Data/BondOrder-VacuumGB/C1/Al/Al-30-d-2.59,CONTCAR,52,Ti51 Al1,1362.6127680076254,3.007853881473104,-391.07832412,-7.520737002307692,"{""ALGO"": ""Fast"", ""AMIX"": 0.01, ""BMIX"": 0.0001, ""EDIFF"": 1e-05, ""EDIFFG"": -0.01, ""ENCUT"": 450.0, ""GGA"": ""Pe"", ""IBRION"": 2, ""ISIF"": 2, ""ISMEAR"": 1, ""ISPIN"": 1, ""ISTART"": 0, ""KPAR"": 1, ""LAECHG"": true, ""LCHARG"": true, ""LORBIT"": 10, ""LPLANE"": false, ""LREAL"": ""Auto"", ""NCORE"": 4, ""NELM"": 300, ""NSIM"": 1, ""NSW"": 2, ""PREC"": ""Accurate"", ""SIGMA"": 0.2, ""SYSTEM"": ""Al-30-d-2.59""}",Al-30-d-2.59,450.0,1,1,0.2,Pe,"{""Ti"": 4.0, ""Al"": 3.0}",207.0,,Al
BondOrder-VacuumGB-C1-Al-Al-31-d-3.83,BondOrder-VacuumGB,BondOrder-VacuumGB/C1/Al/Al-31-d-3.83,/mnt/e/Onedrive/TiGB-Project/Data/BondOrder-VacuumGB/C1/Al/Al-31-d-3.83,CONTCAR,52,Ti51 Al1,1362.6127680076254,3.007853881473104,-392.18680536,-7.542053949230769,"{""ALGO"": ""Fast"", ""AMIX"": 0.01, ""BMIX"": 0.0001, ""EDIFF"": 1e-05, ""EDIFFG"": -0.01, ""ENCUT"": 450.0, ""GGA"": ""Pe"", ""IBRION"": 2, ""ISIF"": 2, ""ISMEAR"": 1, ""ISPIN"": 1, ""ISTART"": 0, ""KPAR"": 1, ""LAECHG"": true, ""LCHARG"": true, ""LORBIT"": 10, ""LPLANE"": false, ""LREAL"": ""Auto"", ""NCORE"": 4, ""NELM"": 300, ""NSIM"": 1, ""NSW"": 2, ""PREC"": ""Accurate"", ""SIGMA"": 0.2, ""SYSTEM"": ""Al-31-d-3.83""}",Al-31-d-3.83,450.0,1,1,0.2,Pe,"{""Ti"": 4.0, ""Al"": 3.0}",207.0,,Al
BondOrder-VacuumGB-C1-Al-Al-32-d-3.83,BondOrder-VacuumGB,BondOrder-VacuumGB/C1/Al/Al-32-d-3.83,/mnt/e/Onedrive/TiGB-Project/Data/BondOrder-VacuumGB/C1/Al/Al-32-d-3.83,CONTCAR,52,Ti51 Al1,1362.6127680076254,3.007853881473104,-390.9297595,-7.517879990384615,"{""ALGO"": ""Fast"", ""AMIX"": 0.01, ""BMIX"": 0.0001, ""EDIFF"": 1e-05, ""EDIFFG"": -0.01, ""ENCUT"": 450.0, ""GGA"": ""Pe"", ""IBRION"": 2, ""ISIF"": 2, ""ISMEAR"": 1, ""ISPIN"": 1, ""ISTART"": 0, ""KPAR"": 1, ""LAECHG"": true, ""LCHARG"": true, ""LORBIT"": 10, ""LPLANE"": false, ""LREAL"": ""Auto"", ""NCORE"": 4, ""NELM"": 300, ""NSIM"": 1, ""NSW"": 2, ""PREC"": ""Accurate"", ""SIGMA"": 0.2, ""SYSTEM"": ""Al-32-d-3.83""}",Al-32-d-3.83,450.0,1,1,0.2,Pe,"{""Ti"": 4.0, ""Al"": 3.0}",207.0,,Al
BondOrder-VacuumGB-C1-Al-Al-33-d-5.07,BondOrder-VacuumGB,BondOrder-VacuumGB/C1/Al/Al-33-d-5.07,/mnt/e/Onedrive/TiGB-Project/Data/BondOrder-VacuumGB/C1/Al/Al-33-d-5.07,CONTCAR,52,Ti51 Al1,1362.6127680076254,3.007853881473104,-391.07866696,-7.520743595384616,"{""ALGO"": ""Fast"", ""AMIX"": 0.01, ""BMIX"": 0.0001, ""EDIFF"": 1e-05, ""EDIFFG"": -0.01, ""ENCUT"": 450.0, ""GGA"": ""Pe"", ""IBRION"": 2, ""ISIF"": 2, ""ISMEAR"": 1, ""ISPIN"": 1, ""ISTART"": 0, ""KPAR"": 1, ""LAECHG"": true, ""LCHARG"": true, ""LORBIT"": 10, ""LPLANE"": false, ""LREAL"": ""Auto"", ""NCORE"": 4, ""NELM"": 300, ""NSIM"": 1, ""NSW"": 2, ""PREC"": ""Accurate"", ""SIGMA"": 0.2, ""SYSTEM"": ""Al-33-d-5.07""}",Al-33-d-5.07,450.0,1,1,0.2,Pe,"{""Ti"": 4.0, ""Al"": 3.0}",207.0,,Al
BondOrder-VacuumGB-C1-Al-Al-34-d-5.07,BondOrder-VacuumGB,BondOrder-VacuumGB/C1/Al/Al-34-d-5.07,/mnt/e/Onedrive/TiGB-Project/Data/BondOrder-VacuumGB/C1/Al/Al-34-d-5.07,CONTCAR,52,Ti51 Al1,1362.6127680076254,3.007853881473104,-391.0519833,-7.520230448076924,"{""ALGO"": ""Fast"", ""AMIX"": 0.01, ""BMIX"": 0.0001, ""EDIFF"": 1e-05, ""EDIFFG"": -0.01, ""ENCUT"": 450.0, ""GGA"": ""Pe"", ""IBRION"": 2, ""ISIF"": 2, ""ISMEAR"": 1, ""ISPIN"": 1, ""ISTART"": 0, ""KPAR"": 1, ""LAECHG"": true, ""LCHARG"": true, ""LORBIT"": 10, ""LPLANE"": false, ""LREAL"": ""Auto"", ""NCORE"": 4, ""NELM"": 300, ""NSIM"": 1, ""NSW"": 2, ""PREC"": ""Accurate"", ""SIGMA"": 0.2, ""SYSTEM"": ""Al-34-d-5.07""}",Al-34-d-5.07,450.0,1,1,0.2,Pe,"{""Ti"": 4.0, ""Al"": 3.0}",207.0,,Al
BondOrder-VacuumGB-C1-Al-Al-35-d-6.31,BondOrder-VacuumGB,BondOrder-VacuumGB/C1/Al/Al-35-d-6.31,/mnt/e/Onedrive/TiGB-Project/Data/BondOrder-VacuumGB/C1/Al/Al-35-d-6.31,CONTCAR,52,Ti51 Al1,1362.6127680076254,3.007853881473104,-390.92041597,-7.517700307115385,"{""ALGO"": ""Fast"", ""AMIX"": 0.01, ""BMIX"": 0.0001, ""EDIFF"": 1e-05, ""EDIFFG"": -0.01, ""ENCUT"": 450.0, ""GGA"": ""Pe"", ""IBRION"": 2, ""ISIF"": 2, ""ISMEAR"": 1, ""ISPIN"": 1, ""ISTART"": 0, ""KPAR"": 1, ""LAECHG"": true, ""LCHARG"": true, ""LORBIT"": 10, ""LPLANE"": false, ""LREAL"": ""Auto"", ""NCORE"": 4, ""NELM"": 300, ""NSIM"": 1, ""NSW"": 2, ""PREC"": ""Accurate"", ""SIGMA"": 0.2, ""SYSTEM"": ""Al-35-d-6.31""}",Al-35-d-6.31,450.0,1,1,0.2,Pe,"{""Ti"": 4.0, ""Al"": 3.0}",207.0,,Al
BondOrder-VacuumGB-C1-Al-Al-36-d-6.31,BondOrder-VacuumGB,BondOrder-VacuumGB/C1/Al/Al-36-d-6.31,/mnt/e/Onedrive/TiGB-Project/Data/BondOrder-VacuumGB/C1/Al/Al-36-d-6.31,CONTCAR,52,Ti51 Al1,1362.6127680076254,3.007853881473104,-391.92815956,-7.537079991538461,"{""ALGO"": ""Fast"", ""AMIX"": 0.01, ""BMIX"": 0.0001, ""EDIFF"": 1e-05, ""EDIFFG"": -0.01, ""ENCUT"": 450.0, ""GGA"": ""Pe"", ""IBRION"": 2, ""ISIF"": 2, ""ISMEAR"": 1, ""ISPIN"": 1, ""ISTART"": 0, ""KPAR"": 1, ""LAECHG"": true, ""LCHARG"": true, ""LORBIT"": 10, ""LPLANE"": false, ""LREAL"": ""Auto"", ""NCORE"": 4, ""NELM"": 300, ""NSIM"": 1, ""NSW"": 2, ""PREC"": ""Accurate"", ""SIGMA"": 0.2, ""SYSTEM"": ""Al-36-d-6.31""}",Al-36-d-6.31,450.0,1,1,0.2,Pe,"{""Ti"": 4.0, ""Al"": 3.0}",207.0,,Al
BondOrder-VacuumGB-C1-V-V-25-d-0.00,BondOrder-VacuumGB,BondOrder-VacuumGB/C1/V/V-25-d-0.00,/mnt/e/Onedrive/TiGB-Project/Data/BondOrder-VacuumGB/C1/V/V-25-d-0.00,CONTCAR,52,Ti51 V1,1362.6127680076254,3.037052530516067,-394.68241107,-7.590046366730769,"{""ALGO"": ""Fast"", ""AMIX"": 0.01, ""BMIX"": 0.0001, ""EDIFF"": 1e-05, ""EDIFFG"": -0.01, ""ENCUT"": 450.0, ""GGA"": ""Pe"", ""IBRION"": 2, ""ISIF"": 2, ""ISMEAR"": 1, ""ISPIN"": 1, ""ISTART"": 0, ""KPAR"": 1, ""LAECHG"": true, ""LCHARG"": true, ""LORBIT"": 10, ""LPLANE"": false, ""LREAL"": ""Auto"", ""NCORE"": 4, ""NELM"": 300, ""NSIM"": 1, ""NSW"": 2, ""PREC"": ""Accurate"", ""SIGMA"": 0.2, ""SYSTEM"": ""V-25-d-0.00""}",V-25-d-0.00,450.0,1,1,0.2,Pe,"{""Ti"": 4.0, ""V"": 5.0}",209.0,,V
BondOrder-VacuumGB-C1-V-V-26-d-0.00,BondOrder-VacuumGB,BondOrder-VacuumGB/C1/V/V-26-d-0.00,/mnt/e/Onedrive/TiGB-Project/Data/BondOrder-VacuumGB/C1/V/V-26-d-0.00,CONTCAR,52,Ti51 V1,1362.6127680076254,3.037052530516067,-394.671538,-7.589837269230769,"{""ALGO"": ""Fast"", ""AMIX"": 0.01, ""BMIX"": 0.0001, ""EDIFF"": 1e-05, ""EDIFFG"": -0.01, ""ENCUT"": 450.0, ""GGA"": ""Pe"", ""IBRION"": 2, ""ISIF"": 2, ""ISMEAR"": 1, ""ISPIN"": 1, ""ISTART"": 0, ""KPAR"": 1, ""LAECHG"": true, ""LCHARG"": true, ""LORBIT"": 10, ""LPLANE"": false, ""LREAL"": ""Auto"", ""NCORE"": 4, ""NELM"": 300, ""NSIM"": 1, ""NSW"": 2, ""PREC"": ""Accurate"", ""SIGMA"": 0.2, ""SYSTEM"": ""V-26-d-0.00""}",V-26-d-0.00,450.0,1,1,0.2,Pe,"{""Ti"": 4.0, ""V"": 5.0}",209.0,,V
BondOrder-VacuumGB-C1-V-V-27-d-1.38,BondOrder-VacuumGB,BondOrder-VacuumGB/C1/V/V-27-d-1.38,/mnt/e/Onedrive/TiGB-Project/Data/BondOrder-VacuumGB/C1/V/V-27-d-1.38,CONTCAR,52,Ti51 V1,1362.6127680076254,3.037052530516067,-396.63417366,-7.627580262692307,"{""ALGO"": ""Fast"", ""AMIX"": 0.01, ""BMIX"": 0.0001, ""EDIFF"": 1e-05, ""EDIFFG"": -0.01, ""ENCUT"": 450.0, ""GGA"": ""Pe"", ""IBRION"": 2, ""ISIF"": 2, ""ISMEAR"": 1, ""ISPIN"": 1, ""ISTART"": 0, ""KPAR"": 1, ""LAECHG"": true, ""LCHARG"": true, ""LORBIT"": 10, ""LPLANE"": false, ""LREAL"": ""Auto"", ""NCORE"": 4, ""NELM"": 300, ""NSIM"": 1, ""NSW"": 2, ""PREC"": ""Accurate"", ""SIGMA"": 0.2, ""SYSTEM"": ""V-27-d-1.38""}",V-27-d-1.38,450.0,1,1,0.2,Pe,"{""Ti"": 4.0, ""V"": 5.0}",209.0,,V
BondOrder-VacuumGB-C1-V-V-28-d-1.38,BondOrder-VacuumGB,BondOrder-VacuumGB/C1/V/V-28-d-1.38,/mnt/e/Onedrive/TiGB-Project/Data/BondOrder-VacuumGB/C1/V/V-28-d-1.38,CONTCAR,52,Ti51 V1,1362.6127680076254,3.037052530516067,-396.58368014,-7.626609233461538,"{""ALGO"": ""Fast"", ""AMIX"": 0.01, ""BMIX"": 0.0001, ""EDIFF"": 1e-05, ""EDIFFG"": -0.01, ""ENCUT"": 450.0, ""GGA"": ""Pe"", ""IBRION"": 2, ""ISIF"": 2, ""ISMEAR"": 1, ""ISPIN"": 1, ""ISTART"": 0, ""KPAR"": 1, ""LAECHG"": true, ""LCHARG"": true, ""LORBIT"": 10, ""LPLANE"": false, ""LREAL"": ""Auto"", ""NCORE"": 4, ""NELM"": 300, ""NSIM"": 1, ""NSW"": 2, ""PREC"": ""Accurate"", ""SIGMA"": 0.2, ""SYSTEM"": ""V-28-d-1.38""}",V-28-d-1.38,450.0,1,1,0.2,Pe,"{""Ti"": 4.0, ""V"": 5.0}",209.0,,V
BondOrder-VacuumGB-C1-V-V-29-d-2.59,BondOrder-VacuumGB,BondOrder-VacuumGB/C1/V/V-29-d-2.59,/mnt/e/Onedrive/TiGB-Project/Data/BondOrder-VacuumGB/C1/V/V-29-d-2.59,CONTCAR,52,Ti51 V1,1362.6127680076254,3.037052530516067,-395.32210465,-7.602348166346155,"{""ALGO"": ""Fast"", ""AMIX"": 0.01, ""BMIX"": 0.0001, ""EDIFF"": 1e-05, ""EDIFFG"": -0.01, ""ENCUT"": 450.0, ""GGA"": ""Pe"", ""IBRION"": 2, ""ISIF"": 2, ""ISMEAR"": 1, ""ISPIN"": 1, ""ISTART"": 0, ""KPAR"": 1, ""LAECHG"": true, ""LCHARG"": true, ""LORBIT"": 10, ""LPLANE"": false, ""LREAL"": ""Auto"", ""NCORE"": 4, ""NELM"": 300, ""NSIM"": 1, ""NSW"": 2, ""PREC"": ""Accurate"", ""SIGMA"": 0.2, ""SYSTEM"": ""V-29-d-2.59""}",V-29-d-2.59,450.0,1,1,0.2,Pe,"{""Ti"": 4.0, ""V"": 5.0}",209.0,,V
BondOrder-VacuumGB-C1-V-V-30-d-2.59,BondOrder-VacuumGB,BondOrder-VacuumGB/C1/V/V-30-d-2.59,/mnt/e/Onedrive/TiGB-Project/Data/BondOrder-VacuumGB/C1/V/V-30-d-2.59,CONTCAR,52,Ti51 V1,1362.6127680076254,3.037052530516067,-395.84207362,-7.612347569615385,"{""ALGO"": ""Fast"", ""AMIX"": 0.01, ""BMIX"": 0.0001, ""EDIFF"": 1e-05, ""EDIFFG"": -0.01, ""ENCUT"": 450.0, ""GGA"": ""Pe"", ""IBRION"": 2, ""ISIF"": 2, ""ISMEAR"": 1, ""ISPIN"": 1, ""ISTART"": 0, ""KPAR"": 1, ""LAECHG"": true, ""LCHARG"": true, ""LORBIT"": 10, ""LPLANE"": false, ""LREAL"": ""Auto"", ""NCORE"": 4, ""NELM"": 300, ""NSIM"": 1, ""NSW"": 2, ""PREC"": ""Accurate"", ""SIGMA"": 0.2, ""SYSTEM"": ""V-30-d-2.59""}",V-30-d-2.59,450.0,1,1,0.2,Pe,"{""Ti"": 4.0, ""V"": 5.0}",209.0,,V
BondOrder-VacuumGB-C1-V-V-31-d-3.83,BondOrder-VacuumGB,BondOrder-VacuumGB/C1/V/V-31-d-3.83,/mnt/e/Onedrive/TiGB-Project/Data/BondOrder-VacuumGB/C1/V/V-31-d-3.83,CONTCAR,52,Ti51 V1,1362.6127680076254,3.037052530516067,-395.77230015,-7.6110057721153845,"{""ALGO"": ""Fast"", ""AMIX"": 0.01, ""BMIX"": 0.0001, ""EDIFF"": 1e-05, ""EDIFFG"": -0.01, ""ENCUT"": 450.0, ""GGA"": ""Pe"", ""IBRION"": 2, ""ISIF"": 2, ""ISMEAR"": 1, ""ISPIN"": 1, ""ISTART"": 0, ""KPAR"": 1, ""LAECHG"": true, ""LCHARG"": true, ""LORBIT"": 10, ""LPLANE"": false, ""LREAL"": ""Auto"", ""NCORE"": 4, ""NELM"": 300, ""NSIM"": 1, ""NSW"": 2, ""PREC"": ""Accurate"", ""SIGMA"": 0.2, ""SYSTEM"": ""V-31-d-3.83""}",V-31-d-3.83,450.0,1,1,0.2,Pe,"{""Ti"": 4.0, ""V"": 5.0}",209.0,,V
BondOrder-VacuumGB-C1-V-V-32-d-3.83,BondOrder-VacuumGB,BondOrder-VacuumGB/C1/V/V-32-d-3.83,/mnt/e/Onedrive/TiGB-Project/Data/BondOrder-VacuumGB/C1/V/V-32-d-3.83,CONTCAR,52,Ti51 V1,1362.6127680076254,3.037052530516067,-396.17412873,-7.618733244807692,"{""ALGO"": ""Fast"", ""AMIX"": 0.01, ""BMIX"": 0.0001, ""EDIFF"": 1e-05, ""EDIFFG"": -0.01, ""ENCUT"": 450.0, ""GGA"": ""Pe"", ""IBRION"": 2, ""ISIF"": 2, ""ISMEAR"": 1, ""ISPIN"": 1, ""ISTART"": 0, ""KPAR"": 1, ""LAECHG"": true, ""LCHARG"": true, ""LORBIT"": 10, ""LPLANE"": false, ""LREAL"": ""Auto"", ""NCORE"": 4, ""NELM"": 300, ""NSIM"": 1, ""NSW"": 2, ""PREC"": ""Accurate"", ""SIGMA"": 0.2, ""SYSTEM"": ""V-32-d-3.83""}",V-32-d-3.83,450.0,1,1,0.2,Pe,"{""Ti"": 4.0, ""V"": 5.0}",209.0,,V
BondOrder-VacuumGB-C1-V-V-33-d-5.07,BondOrder-VacuumGB,BondOrder-VacuumGB/C1/V/V-33-d-5.07,/mnt/e/Onedrive/TiGB-Project/Data/BondOrder-VacuumGB/C1/V/V-33-d-5.07,CONTCAR,52,Ti51 V1,1362.6127680076254,3.037052530516067,-394.81329492,-7.592563363846153,"{""ALGO"": ""Fast"", ""AMIX"": 0.01, ""BMIX"": 0.0001, ""EDIFF"": 1e-05, ""EDIFFG"": -0.01, ""ENCUT"": 450.0, ""GGA"": ""Pe"", ""IBRION"": 2, ""ISIF"": 2, ""ISMEAR"": 1, ""ISPIN"": 1, ""ISTART"": 0, ""KPAR"": 1, ""LAECHG"": true, ""LCHARG"": true, ""LORBIT"": 10, ""LPLANE"": false, ""LREAL"": ""Auto"", ""NCORE"": 4, ""NELM"": 300, ""NSIM"": 1, ""NSW"": 2, ""PREC"": ""Accurate"", ""SIGMA"": 0.2, ""SYSTEM"": ""V-33-d-5.07""}",V-33-d-5.07,450.0,1,1,0.2,Pe,"{""Ti"": 4.0, ""V"": 5.0}",209.0,,V
BondOrder-VacuumGB-C1-V-V-34-d-5.07,BondOrder-VacuumGB,BondOrder-VacuumGB/C1/V/V-34-d-5.07,/mnt/e/Onedrive/TiGB-Project/Data/BondOrder-VacuumGB/C1/V/V-34-d-5.07,CONTCAR,52,Ti51 V1,1362.6127680076254,3.037052530516067,-394.70487449,-7.5904783555769235,"{""ALGO"": ""Fast"", ""AMIX"": 0.01, ""BMIX"": 0.0001, ""EDIFF"": 1e-05, ""EDIFFG"": -0.01, ""ENCUT"": 450.0, ""GGA"": ""Pe"", ""IBRION"": 2, ""ISIF"": 2, ""ISMEAR"": 1, ""ISPIN"": 1, ""ISTART"": 0, ""KPAR"": 1, ""LAECHG"": true, ""LCHARG"": true, ""LORBIT"": 10, ""LPLANE"": false, ""LREAL"": ""Auto"", ""NCORE"": 4, ""NELM"": 300, ""NSIM"": 1, ""NSW"": 2, ""PREC"": ""Accurate"", ""SIGMA"": 0.2, ""SYSTEM"": ""V-34-d-5.07""}",V-34-d-5.07,450.0,1,1,0.2,Pe,"{""Ti"": 4.0, ""V"": 5.0}",209.0,,V
BondOrder-VacuumGB-C1-V-V-35-d-6.31,BondOrder-VacuumGB,BondOrder-VacuumGB/C1/V/V-35-d-6.31,/mnt/e/Onedrive/TiGB-Project/Data/BondOrder-VacuumGB/C1/V/V-35-d-6.31,CONTCAR,52,Ti51 V1,1362.6127680076254,3.037052530516067,-395.73663962,-7.6103199926923075,"{""ALGO"": ""Fast"", ""AMIX"": 0.01, ""BMIX"": 0.0001, ""EDIFF"": 1e-05, ""EDIFFG"": -0.01, ""ENCUT"": 450.0, ""GGA"": ""Pe"", ""IBRION"": 2, ""ISIF"": 2, ""ISMEAR"": 1, ""ISPIN"": 1, ""ISTART"": 0, ""KPAR"": 1, ""LAECHG"": true, ""LCHARG"": true, ""LORBIT"": 10, ""LPLANE"": false, ""LREAL"": ""Auto"", ""NCORE"": 4, ""NELM"": 300, ""NSIM"": 1, ""NSW"": 2, ""PREC"": ""Accurate"", ""SIGMA"": 0.2, ""SYSTEM"": ""V-35-d-6.31""}",V-35-d-6.31,450.0,1,1,0.2,Pe,"{""Ti"": 4.0, ""V"": 5.0}",209.0,,V
BondOrder-VacuumGB-C1-V-V-36-d-6.31,BondOrder-VacuumGB,BondOrder-VacuumGB/C1/V/V-36-d-6.31,/mnt/e/Onedrive/TiGB-Project/Data/BondOrder-VacuumGB/C1/V/V-36-d-6.31,CONTCAR,52,Ti51 V1,1362.6127680076254,3.037052530516067,-395.73560951,-7.6103001828846155,"{""ALGO"": ""Fast"", ""AMIX"": 0.01, ""BMIX"": 0.0001, ""EDIFF"": 1e-05, ""EDIFFG"": -0.01, ""ENCUT"": 450.0, ""GGA"": ""Pe"", ""IBRION"": 2, ""ISIF"": 2, ""ISMEAR"": 1, ""ISPIN"": 1, ""ISTART"": 0, ""KPAR"": 1, ""LAECHG"": true, ""LCHARG"": true, ""LORBIT"": 10, ""LPLANE"": false, ""LREAL"": ""Auto"", ""NCORE"": 4, ""NELM"": 300, ""NSIM"": 1, ""NSW"": 2, ""PREC"": ""Accurate"", ""SIGMA"": 0.2, ""SYSTEM"": ""V-36-d-6.31""}",V-36-d-6.31,450.0,1,1,0.2,Pe,"{""Ti"": 4.0, ""V"": 5.0}",209.0,,V
BondOrder-VacuumGB-CSL13-Al-Al-48-d-0.01,BondOrder-VacuumGB,BondOrder-VacuumGB/CSL13/Al/Al-48-d-0.01,/mnt/e/Onedrive/TiGB-Project/Data/BondOrder-VacuumGB/CSL13/Al/Al-48-d-0.01,CONTCAR,100,Ti99 Al1,2379.742335475211,3.3254949994373777,-759.81256226,-7.5981256226000005,"{""ALGO"": ""Fast"", ""AMIX"": 0.01, ""BMIX"": 0.0001, ""EDIFF"": 1e-05, ""EDIFFG"": -0.01, ""ENCUT"": 450.0, ""GGA"": ""Pe"", ""IBRION"": 2, ""ISIF"": 2, ""ISMEAR"": 1, ""ISPIN"": 1, ""ISTART"": 0, ""KPAR"": 1, ""LAECHG"": true, ""LCHARG"": true, ""LORBIT"": 10, ""LPLANE"": false, ""LREAL"": ""Auto"", ""NCORE"": 4, ""NELM"": 300, ""NSIM"": 1, ""NSW"": 2, ""PREC"": ""Accurate"", ""SIGMA"": 0.2, ""SYSTEM"": ""Al-48-d-0.01""}",Al-48-d-0.01,450.0,1,1,0.2,Pe,"{""Ti"": 4.0, ""Al"": 3.0}",399.0,,Al
BondOrder-VacuumGB-CSL13-Al-Al-49-d-0.01,BondOrder-VacuumGB,BondOrder-VacuumGB/CSL13/Al/Al-49-d-0.01,/mnt/e/Onedrive/TiGB-Project/Data/BondOrder-VacuumGB/CSL13/Al/Al-49-d-0.01,CONTCAR,100,Ti99 Al1,2379.742335475211,3.3254949994373777,-759.13573937,-7.5913573937,"{""ALGO"": ""Fast"", ""AMIX"": 0.01, ""BMIX"": 0.0001, ""EDIFF"": 1e-05, ""EDIFFG"": -0.01, ""ENCUT"": 450.0, ""GGA"": ""Pe"", ""IBRION"": 2, ""ISIF"": 2, ""ISMEAR"": 1, ""ISPIN"": 1, ""ISTART"": 0, ""KPAR"": 1, ""LAECHG"": true, ""LCHARG"": true, ""LORBIT"": 10, ""LPLANE"": false, ""LREAL"": ""Auto"", ""NCORE"": 4, ""NELM"": 300, ""NSIM"": 1, ""NSW"": 2, ""PREC"": ""Accurate"", ""SIGMA"": 0.2, ""SYSTEM"": ""Al-49-d-0.01""}",Al-49-d-0.01,450.0,1,1,0.2,Pe,"{""Ti"": 4.0, ""Al"": 3.0}",399.0,,Al