job_name,top_level,relpath,path,structure_file,num_atoms,formula,volume,density,energy_eV,energy_per_atom_eV,incar,incar_system,incar_encut,incar_ispin,incar_ismear,incar_sigma,incar_gga,potcar_nelectrons_map,potcar_total_nelectrons,parse_errors,solute
Slab-1sol-T1g-Al-SLAB-Al-SLAB-11,Slab-1sol,Slab-1sol/T1g/Al-SLAB/Al-SLAB-11,/mnt/e/Onedrive/TiGB-Project/Data/Slab-1sol/T1g/Al-SLAB/Al-SLAB-11,CONTCAR,32,Ti31 Al1,1108.4386346486194,2.2633996619506047,-235.340377,-7.35438678125,"{""ALGO"": ""Fast"", ""AMIX"": 0.01, ""BMIX"": 0.0001, ""EDIFF"": 0.0001, ""EDIFFG"": -0.02, ""ENCUT"": 450.0, ""GGA"": ""Pe"", ""IBRION"": 2, ""ISIF"": 2, ""ISMEAR"": 1, ""ISPIN"": 1, ""ISTART"": 0, ""KPAR"": 2, ""LORBIT"": 10, ""LPLANE"": false, ""LREAL"": ""Auto"", ""NCORE"": 4, ""NELM"": 120, ""NSIM"": 1, ""NSW"": 60, ""PREC"": ""Accurate"", ""SIGMA"": 0.2, ""SYSTEM"": ""Al-slab-11""}",Al-slab-11,450.0,1,1,0.2,Pe,"{""Ti"": 4.0, ""Al"": 3.0}",127.0,"vasprun:no element found: line 4069, column 0",Al
Slab-1sol-T1g-Al-SLAB-Al-SLAB-12,Slab-1sol,Slab-1sol/T1g/Al-SLAB/Al-SLAB-12,/mnt/e/Onedrive/TiGB-Project/Data/Slab-1sol/T1g/Al-SLAB/Al-SLAB-12,CONTCAR,32,Ti31 Al1,1108.4386346486194,2.2633996619506047,-235.32738354,-7.353980735625,"{""ALGO"": ""Fast"", ""AMIX"": 0.01, ""BMIX"": 0.0001, ""EDIFF"": 0.0001, ""EDIFFG"": -0.02, ""ENCUT"": 450.0, ""GGA"": ""Pe"", ""IBRION"": 2, ""ISIF"": 2, ""ISMEAR"": 1, ""ISPIN"": 1, ""ISTART"": 0, ""KPAR"": 2, ""LORBIT"": 10, ""LPLANE"": false, ""LREAL"": ""Auto"", ""NCORE"": 4, ""NELM"": 120, ""NSIM"": 1, ""NSW"": 60, ""PREC"": ""Accurate"", ""SIGMA"": 0.2, ""SYSTEM"": ""Al-slab-12""}",Al-slab-12,450.0,1,1,0.2,Pe,"{""Ti"": 4.0, ""Al"": 3.0}",127.0,,Al
Slab-1sol-T1g-Al-SLAB-Al-SLAB-13,Slab-1sol,Slab-1sol/T1g/Al-SLAB/Al-SLAB-13,/mnt/e/Onedrive/TiGB-Project/Data/Slab-1sol/T1g/Al-SLAB/Al-SLAB-13,CONTCAR,32,Ti31 Al1,1108.4386346486194,2.2633996619506047,-235.33022542,-7.354069544375,"{""ALGO"": ""Fast"", ""AMIX"": 0.01, ""BMIX"": 0.0001, ""EDIFF"": 0.0001, ""EDIFFG"": -0.02, ""ENCUT"": 450.0, ""GGA"": ""Pe"", ""IBRION"": 2, ""ISIF"": 2, ""ISMEAR"": 1, ""ISPIN"": 1, ""ISTART"": 0, ""KPAR"": 2, ""LORBIT"": 10, ""LPLANE"": false, ""LREAL"": ""Auto"", ""NCORE"": 4, ""NELM"": 120, ""NSIM"": 1, ""NSW"": 60, ""PREC"": ""Accurate"", ""SIGMA"": 0.2, ""SYSTEM"": ""Al-slab-13""}",Al-slab-13,450.0,1,1,0.2,Pe,"{""Ti"": 4.0, ""Al"": 3.0}",127.0,,Al
Slab-1sol-T1g-Al-SLAB-Al-SLAB-14,Slab-1sol,Slab-1sol/T1g/Al-SLAB/Al-SLAB-14,/mnt/e/Onedrive/TiGB-Project/Data/Slab-1sol/T1g/Al-SLAB/Al-SLAB-14,CONTCAR,32,Ti31 Al1,1108.4386346486194,2.2633996619506047,-235.34981115,-7.3546815984375,"{""ALGO"": ""Fast"", ""AMIX"": 0.01, ""BMIX"": 0.0001, ""EDIFF"": 0.0001, ""EDIFFG"": -0.02, ""ENCUT"": 450.0, ""GGA"": ""Pe"", ""IBRION"": 2, ""ISIF"": 2, ""ISMEAR"": 1, ""ISPIN"": 1, ""ISTART"": 0, ""KPAR"": 2, ""LORBIT"": 10, ""LPLANE"": false, ""LREAL"": ""Auto"", ""NCORE"": 4, ""NELM"": 120, ""NSIM"": 1, ""NSW"": 60, ""PREC"": ""Accurate"", ""SIGMA"": 0.2, ""SYSTEM"": ""Al-slab-14""}",Al-slab-14,450.0,1,1,0.2,Pe,"{""Ti"": 4.0, ""Al"": 3.0}",127.0,,Al
Slab-1sol-T1g-V-SLAB-V-SLAB-11,Slab-1sol,Slab-1sol/T1g/V-SLAB/V-SLAB-11,/mnt/e/Onedrive/TiGB-Project/Data/Slab-1sol/T1g/V-SLAB/V-SLAB-11,CONTCAR,32,Ti31 V1,1108.4386346486194,2.2992938023665306,-239.1542772,-7.4735711625,"{""ALGO"": ""Fast"", ""AMIX"": 0.01, ""BMIX"": 0.0001, ""EDIFF"": 0.0001, ""EDIFFG"": -0.02, ""ENCUT"": 450.0, ""GGA"": ""Pe"", ""IBRION"": 2, ""ISIF"": 2, ""ISMEAR"": 1, ""ISPIN"": 1, ""ISTART"": 0, ""KPAR"": 2, ""LORBIT"": 10, ""LPLANE"": false, ""LREAL"": ""Auto"", ""NCORE"": 4, ""NELM"": 120, ""NSIM"": 1, ""NSW"": 60, ""PREC"": ""Accurate"", ""SIGMA"": 0.2, ""SYSTEM"": ""V-slab-11""}",V-slab-11,450.0,1,1,0.2,Pe,"{""Ti"": 4.0, ""V"": 5.0}",129.0,"vasprun:no element found: line 4869, column 0",V
Slab-1sol-T1g-V-SLAB-V-SLAB-12,Slab-1sol,Slab-1sol/T1g/V-SLAB/V-SLAB-12,/mnt/e/Onedrive/TiGB-Project/Data/Slab-1sol/T1g/V-SLAB/V-SLAB-12,CONTCAR,32,Ti31 V1,1108.4386346486194,2.2992938023665306,-239.17480197,-7.4742125615625,"{""ALGO"": ""Fast"", ""AMIX"": 0.01, ""BMIX"": 0.0001, ""EDIFF"": 0.0001, ""EDIFFG"": -0.02, ""ENCUT"": 450.0, ""GGA"": ""Pe"", ""IBRION"": 2, ""ISIF"": 2, ""ISMEAR"": 1, ""ISPIN"": 1, ""ISTART"": 0, ""KPAR"": 2, ""LORBIT"": 10, ""LPLANE"": false, ""LREAL"": ""Auto"", ""NCORE"": 4, ""NELM"": 120, ""NSIM"": 1, ""NSW"": 60, ""PREC"": ""Accurate"", ""SIGMA"": 0.2, ""SYSTEM"": ""V-slab-12""}",V-slab-12,450.0,1,1,0.2,Pe,"{""Ti"": 4.0, ""V"": 5.0}",129.0,"vasprun:no element found: line 4877, column 0",V
Slab-1sol-T1g-V-SLAB-V-SLAB-13,Slab-1sol,Slab-1sol/T1g/V-SLAB/V-SLAB-13,/mnt/e/Onedrive/TiGB-Project/Data/Slab-1sol/T1g/V-SLAB/V-SLAB-13,CONTCAR,32,Ti31 V1,1108.4386346486194,2.2992938023665306,-239.16932128,-7.47404129,"{""ALGO"": ""Fast"", ""AMIX"": 0.01, ""BMIX"": 0.0001, ""EDIFF"": 0.0001, ""EDIFFG"": -0.02, ""ENCUT"": 450.0, ""GGA"": ""Pe"", ""IBRION"": 2, ""ISIF"": 2, ""ISMEAR"": 1, ""ISPIN"": 1, ""ISTART"": 0, ""KPAR"": 2, ""LORBIT"": 10, ""LPLANE"": false, ""LREAL"": ""Auto"", ""NCORE"": 4, ""NELM"": 120, ""NSIM"": 1, ""NSW"": 60, ""PREC"": ""Accurate"", ""SIGMA"": 0.2, ""SYSTEM"": ""V-slab-13""}",V-slab-13,450.0,1,1,0.2,Pe,"{""Ti"": 4.0, ""V"": 5.0}",129.0,"vasprun:no element found: line 4884, column 0",V
Slab-1sol-T1g-V-SLAB-V-SLAB-14,Slab-1sol,Slab-1sol/T1g/V-SLAB/V-SLAB-14,/mnt/e/Onedrive/TiGB-Project/Data/Slab-1sol/T1g/V-SLAB/V-SLAB-14,CONTCAR,32,Ti31 V1,1108.4386346486194,2.2992938023665306,-239.12294511,-7.4725920346875,"{""ALGO"": ""Fast"", ""AMIX"": 0.01, ""BMIX"": 0.0001, ""EDIFF"": 0.0001, ""EDIFFG"": -0.02, ""ENCUT"": 450.0, ""GGA"": ""Pe"", ""IBRION"": 2, ""ISIF"": 2, ""ISMEAR"": 1, ""ISPIN"": 1, ""ISTART"": 0, ""KPAR"": 2, ""LORBIT"": 10, ""LPLANE"": false, ""LREAL"": ""Auto"", ""NCORE"": 4, ""NELM"": 120, ""NSIM"": 1, ""NSW"": 60, ""PREC"": ""Accurate"", ""SIGMA"": 0.2, ""SYSTEM"": ""V-slab-14""}",V-slab-14,450.0,1,1,0.2,Pe,"{""Ti"": 4.0, ""V"": 5.0}",129.0,,V
Slab-1sol-T1m-Al-SLAB-Al-SLAB-13,Slab-1sol,Slab-1sol/T1m/Al-SLAB/Al-SLAB-13,/mnt/e/Onedrive/TiGB-Project/Data/Slab-1sol/T1m/Al-SLAB/Al-SLAB-13,CONTCAR,36,Ti35 Al1,1108.7119705599027,2.549606931705732,-266.36842748,-7.399122985555555,"{""ALGO"": ""Fast"", ""AMIX"": 0.01, ""BMIX"": 0.0001, ""EDIFF"": 0.0001, ""EDIFFG"": -0.02, ""ENCUT"": 450.0, ""GGA"": ""Pe"", ""IBRION"": 2, ""ISIF"": 2, ""ISMEAR"": 1, ""ISPIN"": 1, ""ISTART"": 0, ""KPAR"": 2, ""LORBIT"": 10, ""LPLANE"": false, ""LREAL"": ""Auto"", ""NCORE"": 4, ""NELM"": 120, ""NSIM"": 1, ""NSW"": 60, ""PREC"": ""Accurate"", ""SIGMA"": 0.2, ""SYSTEM"": ""Al-slab-13""}",Al-slab-13,450.0,1,1,0.2,Pe,"{""Ti"": 4.0, ""Al"": 3.0}",143.0,,Al
Slab-1sol-T1m-Al-SLAB-Al-SLAB-14,Slab-1sol,Slab-1sol/T1m/Al-SLAB/Al-SLAB-14,/mnt/e/Onedrive/TiGB-Project/Data/Slab-1sol/T1m/Al-SLAB/Al-SLAB-14,CONTCAR,36,Ti35 Al1,1108.7119705599027,2.549606931705732,-266.3685559,-7.399126552777777,"{""ALGO"": ""Fast"", ""AMIX"": 0.01, ""BMIX"": 0.0001, ""EDIFF"": 0.0001, ""EDIFFG"": -0.02, ""ENCUT"": 450.0, ""GGA"": ""Pe"", ""IBRION"": 2, ""ISIF"": 2, ""ISMEAR"": 1, ""ISPIN"": 1, ""ISTART"": 0, ""KPAR"": 2, ""LORBIT"": 10, ""LPLANE"": false, ""LREAL"": ""Auto"", ""NCORE"": 4, ""NELM"": 120, ""NSIM"": 1, ""NSW"": 60, ""PREC"": ""Accurate"", ""SIGMA"": 0.2, ""SYSTEM"": ""Al-slab-14""}",Al-slab-14,450.0,1,1,0.2,Pe,"{""Ti"": 4.0, ""Al"": 3.0}",143.0,,Al
Slab-1sol-T1m-Al-SLAB-Al-SLAB-15,Slab-1sol,Slab-1sol/T1m/Al-SLAB/Al-SLAB-15,/mnt/e/Onedrive/TiGB-Project/Data/Slab-1sol/T1m/Al-SLAB/Al-SLAB-15,CONTCAR,36,Ti35 Al1,1108.7119705599027,2.549606931705732,-266.36718794,-7.399088553888889,"{""ALGO"": ""Fast"", ""AMIX"": 0.01, ""BMIX"": 0.0001, ""EDIFF"": 0.0001, ""EDIFFG"": -0.02, ""ENCUT"": 450.0, ""GGA"": ""Pe"", ""IBRION"": 2, ""ISIF"": 2, ""ISMEAR"": 1, ""ISPIN"": 1, ""ISTART"": 0, ""KPAR"": 2, ""LORBIT"": 10, ""LPLANE"": false, ""LREAL"": ""Auto"", ""NCORE"": 4, ""NELM"": 120, ""NSIM"": 1, ""NSW"": 60, ""PREC"": ""Accurate"", ""SIGMA"": 0.2, ""SYSTEM"": ""Al-slab-15""}",Al-slab-15,450.0,1,1,0.2,Pe,"{""Ti"": 4.0, ""Al"": 3.0}",143.0,,Al
Slab-1sol-T1m-Al-SLAB-Al-SLAB-16,Slab-1sol,Slab-1sol/T1m/Al-SLAB/Al-SLAB-16,/mnt/e/Onedrive/TiGB-Project/Data/Slab-1sol/T1m/Al-SLAB/Al-SLAB-16,CONTCAR,36,Ti35 Al1,1108.7119705599027,2.549606931705732,-266.36530577,-7.39903627138889,"{""ALGO"": ""Fast"", ""AMIX"": 0.01, ""BMIX"": 0.0001, ""EDIFF"": 0.0001, ""EDIFFG"": -0.02, ""ENCUT"": 450.0, ""GGA"": ""Pe"", ""IBRION"": 2, ""ISIF"": 2, ""ISMEAR"": 1, ""ISPIN"": 1, ""ISTART"": 0, ""KPAR"": 2, ""LORBIT"": 10, ""LPLANE"": false, ""LREAL"": ""Auto"", ""NCORE"": 4, ""NELM"": 120, ""NSIM"": 1, ""NSW"": 60, ""PREC"": ""Accurate"", ""SIGMA"": 0.2, ""SYSTEM"": ""Al-slab-16""}",Al-slab-16,450.0,1,1,0.2,Pe,"{""Ti"": 4.0, ""Al"": 3.0}",143.0,"vasprun:no element found: line 3850, column 0",Al
Slab-1sol-T1m-V-SLAB-V-SLAB-13,Slab-1sol,Slab-1sol/T1m/V-SLAB/V-SLAB-13,/mnt/e/Onedrive/TiGB-Project/Data/Slab-1sol/T1m/V-SLAB/V-SLAB-13,CONTCAR,36,Ti35 V1,1108.7119705599027,2.5854922229725186,-270.18145169,-7.505040324722223,"{""ALGO"": ""Fast"", ""AMIX"": 0.01, ""BMIX"": 0.0001, ""EDIFF"": 0.0001, ""EDIFFG"": -0.02, ""ENCUT"": 450.0, ""GGA"": ""Pe"", ""IBRION"": 2, ""ISIF"": 2, ""ISMEAR"": 1, ""ISPIN"": 1, ""ISTART"": 0, ""KPAR"": 2, ""LORBIT"": 10, ""LPLANE"": false, ""LREAL"": ""Auto"", ""NCORE"": 4, ""NELM"": 120, ""NSIM"": 1, ""NSW"": 60, ""PREC"": ""Accurate"", ""SIGMA"": 0.2, ""SYSTEM"": ""V-slab-13""}",V-slab-13,450.0,1,1,0.2,Pe,"{""Ti"": 4.0, ""V"": 5.0}",145.0,"vasprun:no element found: line 4048, column 0",V
Slab-1sol-T1m-V-SLAB-V-SLAB-14,Slab-1sol,Slab-1sol/T1m/V-SLAB/V-SLAB-14,/mnt/e/Onedrive/TiGB-Project/Data/Slab-1sol/T1m/V-SLAB/V-SLAB-14,CONTCAR,36,Ti35 V1,1108.7119705599027,2.5854922229725186,-270.17948164,-7.504985601111112,"{""ALGO"": ""Fast"", ""AMIX"": 0.01, ""BMIX"": 0.0001, ""EDIFF"": 0.0001, ""EDIFFG"": -0.02, ""ENCUT"": 450.0, ""GGA"": ""Pe"", ""IBRION"": 2, ""ISIF"": 2, ""ISMEAR"": 1, ""ISPIN"": 1, ""ISTART"": 0, ""KPAR"": 2, ""LORBIT"": 10, ""LPLANE"": false, ""LREAL"": ""Auto"", ""NCORE"": 4, ""NELM"": 120, ""NSIM"": 1, ""NSW"": 60, ""PREC"": ""Accurate"", ""SIGMA"": 0.2, ""SYSTEM"": ""V-slab-14""}",V-slab-14,450.0,1,1,0.2,Pe,"{""Ti"": 4.0, ""V"": 5.0}",145.0,,V
Slab-1sol-T1m-V-SLAB-V-SLAB-15,Slab-1sol,Slab-1sol/T1m/V-SLAB/V-SLAB-15,/mnt/e/Onedrive/TiGB-Project/Data/Slab-1sol/T1m/V-SLAB/V-SLAB-15,CONTCAR,36,Ti35 V1,1108.7119705599027,2.5854922229725186,-270.18145384,-7.505040384444445,"{""ALGO"": ""Fast"", ""AMIX"": 0.01, ""BMIX"": 0.0001, ""EDIFF"": 0.0001, ""EDIFFG"": -0.02, ""ENCUT"": 450.0, ""GGA"": ""Pe"", ""IBRION"": 2, ""ISIF"": 2, ""ISMEAR"": 1, ""ISPIN"": 1, ""ISTART"": 0, ""KPAR"": 2, ""LORBIT"": 10, ""LPLANE"": false, ""LREAL"": ""Auto"", ""NCORE"": 4, ""NELM"": 120, ""NSIM"": 1, ""NSW"": 60, ""PREC"": ""Accurate"", ""SIGMA"": 0.2, ""SYSTEM"": ""V-slab-15""}",V-slab-15,450.0,1,1,0.2,Pe,"{""Ti"": 4.0, ""V"": 5.0}",145.0,,V
Slab-1sol-T1m-V-SLAB-V-SLAB-16,Slab-1sol,Slab-1sol/T1m/V-SLAB/V-SLAB-16,/mnt/e/Onedrive/TiGB-Project/Data/Slab-1sol/T1m/V-SLAB/V-SLAB-16,CONTCAR,36,Ti35 V1,1108.7119705599027,2.5854922229725186,-270.18210777,-7.505058549166667,"{""ALGO"": ""Fast"", ""AMIX"": 0.01, ""BMIX"": 0.0001, ""EDIFF"": 0.0001, ""EDIFFG"": -0.02, ""ENCUT"": 450.0, ""GGA"": ""Pe"", ""IBRION"": 2, ""ISIF"": 2, ""ISMEAR"": 1, ""ISPIN"": 1, ""ISTART"": 0, ""KPAR"": 2, ""LORBIT"": 10, ""LPLANE"": false, ""LREAL"": ""Auto"", ""NCORE"": 4, ""NELM"": 120, ""NSIM"": 1, ""NSW"": 60, ""PREC"": ""Accurate"", ""SIGMA"": 0.2, ""SYSTEM"": ""V-slab-16""}",V-slab-16,450.0,1,1,0.2,Pe,"{""Ti"": 4.0, ""V"": 5.0}",145.0,,V
Slab-1sol-T2-Al-SLAB-Al-SLAB-13,Slab-1sol,Slab-1sol/T2/Al-SLAB/Al-SLAB-13,/mnt/e/Onedrive/TiGB-Project/Data/Slab-1sol/T2/Al-SLAB/Al-SLAB-13,CONTCAR,34,Ti33 Al1,1105.3570633764582,2.413527507601469,-248.56217716,-7.310652269411765,"{""ALGO"": ""Fast"", ""AMIX"": 0.01, ""BMIX"": 0.0001, ""EDIFF"": 0.0001, ""EDIFFG"": -0.02, ""ENCUT"": 450.0, ""GGA"": ""Pe"", ""IBRION"": 2, ""ISIF"": 2, ""ISMEAR"": 1, ""ISPIN"": 1, ""ISTART"": 0, ""KPAR"": 2, ""LORBIT"": 10, ""LPLANE"": false, ""LREAL"": ""Auto"", ""NCORE"": 4, ""NELM"": 120, ""NSIM"": 1, ""NSW"": 60, ""PREC"": ""Accurate"", ""SIGMA"": 0.2, ""SYSTEM"": ""Al-slab-13""}",Al-slab-13,450.0,1,1,0.2,Pe,"{""Ti"": 4.0, ""Al"": 3.0}",135.0,,Al
Slab-1sol-T2-Al-SLAB-Al-SLAB-14,Slab-1sol,Slab-1sol/T2/Al-SLAB/Al-SLAB-14,/mnt/e/Onedrive/TiGB-Project/Data/Slab-1sol/T2/Al-SLAB/Al-SLAB-14,CONTCAR,34,Ti33 Al1,1105.3570633764582,2.413527507601469,-248.52644638,-7.309601364117647,"{""ALGO"": ""Fast"", ""AMIX"": 0.01, ""BMIX"": 0.0001, ""EDIFF"": 0.0001, ""EDIFFG"": -0.02, ""ENCUT"": 450.0, ""GGA"": ""Pe"", ""IBRION"": 2, ""ISIF"": 2, ""ISMEAR"": 1, ""ISPIN"": 1, ""ISTART"": 0, ""KPAR"": 2, ""LORBIT"": 10, ""LPLANE"": false, ""LREAL"": ""Auto"", ""NCORE"": 4, ""NELM"": 120, ""NSIM"": 1, ""NSW"": 60, ""PREC"": ""Accurate"", ""SIGMA"": 0.2, ""SYSTEM"": ""Al-slab-14""}",Al-slab-14,450.0,1,1,0.2,Pe,"{""Ti"": 4.0, ""Al"": 3.0}",135.0,,Al
Slab-1sol-T2-Al-SLAB-Al-SLAB-15,Slab-1sol,Slab-1sol/T2/Al-SLAB/Al-SLAB-15,/mnt/e/Onedrive/TiGB-Project/Data/Slab-1sol/T2/Al-SLAB/Al-SLAB-15,CONTCAR,34,Ti33 Al1,1105.3570633764582,2.413527507601469,-248.52516679,-7.309563729117647,"{""ALGO"": ""Fast"", ""AMIX"": 0.01, ""BMIX"": 0.0001, ""EDIFF"": 0.0001, ""EDIFFG"": -0.02, ""ENCUT"": 450.0, ""GGA"": ""Pe"", ""IBRION"": 2, ""ISIF"": 2, ""ISMEAR"": 1, ""ISPIN"": 1, ""ISTART"": 0, ""KPAR"": 2, ""LORBIT"": 10, ""LPLANE"": false, ""LREAL"": ""Auto"", ""NCORE"": 4, ""NELM"": 120, ""NSIM"": 1, ""NSW"": 60, ""PREC"": ""Accurate"", ""SIGMA"": 0.2, ""SYSTEM"": ""Al-slab-15""}",Al-slab-15,450.0,1,1,0.2,Pe,"{""Ti"": 4.0, ""Al"": 3.0}",135.0,,Al
Slab-1sol-T2-Al-SLAB-Al-SLAB-16,Slab-1sol,Slab-1sol/T2/Al-SLAB/Al-SLAB-16,/mnt/e/Onedrive/TiGB-Project/Data/Slab-1sol/T2/Al-SLAB/Al-SLAB-16,CONTCAR,34,Ti33 Al1,1105.3570633764582,2.413527507601469,-248.52900584,-7.309676642352941,"{""ALGO"": ""Fast"", ""AMIX"": 0.01, ""BMIX"": 0.0001, ""EDIFF"": 0.0001, ""EDIFFG"": -0.02, ""ENCUT"": 450.0, ""GGA"": ""Pe"", ""IBRION"": 2, ""ISIF"": 2, ""ISMEAR"": 1, ""ISPIN"": 1, ""ISTART"": 0, ""KPAR"": 2, ""LORBIT"": 10, ""LPLANE"": false, ""LREAL"": ""Auto"", ""NCORE"": 4, ""NELM"": 120, ""NSIM"": 1, ""NSW"": 60, ""PREC"": ""Accurate"", ""SIGMA"": 0.2, ""SYSTEM"": ""Al-slab-16""}",Al-slab-16,450.0,1,1,0.2,Pe,"{""Ti"": 4.0, ""Al"": 3.0}",135.0,,Al
Slab-1sol-T2-V-SLAB-V-SLAB-13,Slab-1sol,Slab-1sol/T2/V-SLAB/V-SLAB-13,/mnt/e/Onedrive/TiGB-Project/Data/Slab-1sol/T2/V-SLAB/V-SLAB-13,CONTCAR,34,Ti33 V1,1105.3570633764582,2.4495217155481592,-252.39214037,-7.42329824617647,"{""ALGO"": ""Fast"", ""AMIX"": 0.01, ""BMIX"": 0.0001, ""EDIFF"": 0.0001, ""EDIFFG"": -0.02, ""ENCUT"": 450.0, ""GGA"": ""Pe"", ""IBRION"": 2, ""ISIF"": 2, ""ISMEAR"": 1, ""ISPIN"": 1, ""ISTART"": 0, ""KPAR"": 2, ""LORBIT"": 10, ""LPLANE"": false, ""LREAL"": ""Auto"", ""NCORE"": 4, ""NELM"": 120, ""NSIM"": 1, ""NSW"": 60, ""PREC"": ""Accurate"", ""SIGMA"": 0.2, ""SYSTEM"": ""V-slab-13""}",V-slab-13,450.0,1,1,0.2,Pe,"{""Ti"": 4.0, ""V"": 5.0}",137.0,,V
Slab-1sol-T2-V-SLAB-V-SLAB-14,Slab-1sol,Slab-1sol/T2/V-SLAB/V-SLAB-14,/mnt/e/Onedrive/TiGB-Project/Data/Slab-1sol/T2/V-SLAB/V-SLAB-14,CONTCAR,34,Ti33 V1,1105.3570633764582,2.4495217155481592,-252.4025942,-7.423605711764706,"{""ALGO"": ""Fast"", ""AMIX"": 0.01, ""BMIX"": 0.0001, ""EDIFF"": 0.0001, ""EDIFFG"": -0.02, ""ENCUT"": 450.0, ""GGA"": ""Pe"", ""IBRION"": 2, ""ISIF"": 2, ""ISMEAR"": 1, ""ISPIN"": 1, ""ISTART"": 0, ""KPAR"": 2, ""LORBIT"": 10, ""LPLANE"": false, ""LREAL"": ""Auto"", ""NCORE"": 4, ""NELM"": 120, ""NSIM"": 1, ""NSW"": 60, ""PREC"": ""Accurate"", ""SIGMA"": 0.2, ""SYSTEM"": ""V-slab-14""}",V-slab-14,450.0,1,1,0.2,Pe,"{""Ti"": 4.0, ""V"": 5.0}",137.0,,V
Slab-1sol-T2-V-SLAB-V-SLAB-15,Slab-1sol,Slab-1sol/T2/V-SLAB/V-SLAB-15,/mnt/e/Onedrive/TiGB-Project/Data/Slab-1sol/T2/V-SLAB/V-SLAB-15,CONTCAR,34,Ti33 V1,1105.3570633764582,2.4495217155481592,-252.40232618,-7.423597828823529,"{""ALGO"": ""Fast"", ""AMIX"": 0.01, ""BMIX"": 0.0001, ""EDIFF"": 0.0001, ""EDIFFG"": -0.02, ""ENCUT"": 450.0, ""GGA"": ""Pe"", ""IBRION"": 2, ""ISIF"": 2, ""ISMEAR"": 1, ""ISPIN"": 1, ""ISTART"": 0, ""KPAR"": 2, ""LORBIT"": 10, ""LPLANE"": false, ""LREAL"": ""Auto"", ""NCORE"": 4, ""NELM"": 120, ""NSIM"": 1, ""NSW"": 60, ""PREC"": ""Accurate"", ""SIGMA"": 0.2, ""SYSTEM"": ""V-slab-15""}",V-slab-15,450.0,1,1,0.2,Pe,"{""Ti"": 4.0, ""V"": 5.0}",137.0,,V
Slab-1sol-T2-V-SLAB-V-SLAB-16,Slab-1sol,Slab-1sol/T2/V-SLAB/V-SLAB-16,/mnt/e/Onedrive/TiGB-Project/Data/Slab-1sol/T2/V-SLAB/V-SLAB-16,CONTCAR,34,Ti33 V1,1105.3570633764582,2.4495217155481592,-252.37925226,-7.422919184117647,"{""ALGO"": ""Fast"", ""AMIX"": 0.01, ""BMIX"": 0.0001, ""EDIFF"": 0.0001, ""EDIFFG"": -0.02, ""ENCUT"": 450.0, ""GGA"": ""Pe"", ""IBRION"": 2, ""ISIF"": 2, ""ISMEAR"": 1, ""ISPIN"": 1, ""ISTART"": 0, ""KPAR"": 2, ""LORBIT"": 10, ""LPLANE"": false, ""LREAL"": ""Auto"", ""NCORE"": 4, ""NELM"": 120, ""NSIM"": 1, ""NSW"": 60, ""PREC"": ""Accurate"", ""SIGMA"": 0.2, ""SYSTEM"": ""V-slab-16""}",V-slab-16,450.0,1,1,0.2,Pe,"{""Ti"": 4.0, ""V"": 5.0}",137.0,,V