job_name,top_level,relpath,path,structure_file,num_atoms,formula,volume,density,energy_eV,energy_per_atom_eV,incar,incar_system,incar_encut,incar_ispin,incar_ismear,incar_sigma,incar_gga,potcar_nelectrons_map,potcar_total_nelectrons,parse_errors,solute
Segregation-1sol-addvac-T1m-V-V-33-d-0.00,Segregation-1sol-addvac,Segregation-1sol-addvac/T1m/V/V-33-d-0.00,/mnt/e/Onedrive/TiGB-Project/Data/Segregation-1sol-addvac/T1m/V/V-33-d-0.00,CONTCAR,64,Ti63 V1,1756.1076583245747,2.8996780547003476,-487.05182186,-7.6101847165625,"{""ALGO"": ""Normal"", ""AMIX"": 0.01, ""BMIX"": 0.0001, ""EDIFF"": 0.0001, ""EDIFFG"": -0.02, ""ENCUT"": 450.0, ""GGA"": ""Pe"", ""IBRION"": 2, ""ISIF"": 2, ""ISMEAR"": 1, ""ISPIN"": 1, ""ISTART"": 0, ""KPAR"": 4, ""LORBIT"": 10, ""LPLANE"": false, ""LREAL"": ""Auto"", ""NCORE"": 4, ""NELM"": 120, ""NSIM"": 1, ""NSW"": 60, ""PREC"": ""Accurate"", ""SIGMA"": 0.2, ""SYSTEM"": ""V-33-d-0.00""}",V-33-d-0.00,450.0,1,1,0.2,Pe,"{""Ti"": 4.0, ""V"": 5.0}",257.0,,V
Segregation-1sol-addvac-T1m-V-V-34-d-0.00,Segregation-1sol-addvac,Segregation-1sol-addvac/T1m/V/V-34-d-0.00,/mnt/e/Onedrive/TiGB-Project/Data/Segregation-1sol-addvac/T1m/V/V-34-d-0.00,CONTCAR,64,Ti63 V1,1756.1076583245747,2.8996780547003476,-486.60020856,-7.60312825875,"{""ALGO"": ""Fast"", ""AMIX"": 0.01, ""BMIX"": 0.0001, ""EDIFF"": 0.0001, ""EDIFFG"": -0.02, ""ENCUT"": 450.0, ""GGA"": ""Pe"", ""IBRION"": 2, ""ISIF"": 2, ""ISMEAR"": 1, ""ISPIN"": 1, ""ISTART"": 0, ""KPAR"": 4, ""LORBIT"": 10, ""LPLANE"": false, ""LREAL"": ""Auto"", ""NCORE"": 4, ""NELM"": 120, ""NSIM"": 1, ""NSW"": 60, ""PREC"": ""Accurate"", ""SIGMA"": 0.2, ""SYSTEM"": ""V-34-d-0.00""}",V-34-d-0.00,450.0,1,1,0.2,Pe,"{""Ti"": 4.0, ""V"": 5.0}",257.0,,V
Segregation-1sol-addvac-T1m-V-V-36-d-1.42,Segregation-1sol-addvac,Segregation-1sol-addvac/T1m/V/V-36-d-1.42,/mnt/e/Onedrive/TiGB-Project/Data/Segregation-1sol-addvac/T1m/V/V-36-d-1.42,CONTCAR,64,Ti63 V1,1756.1076583245747,2.8996780547003476,-486.92653301,-7.60822707828125,"{""ALGO"": ""Fast"", ""AMIX"": 0.01, ""BMIX"": 0.0001, ""EDIFF"": 0.0001, ""EDIFFG"": -0.02, ""ENCUT"": 450.0, ""GGA"": ""Pe"", ""IBRION"": 2, ""ISIF"": 2, ""ISMEAR"": 1, ""ISPIN"": 1, ""ISTART"": 0, ""KPAR"": 4, ""LORBIT"": 10, ""LPLANE"": false, ""LREAL"": ""Auto"", ""NCORE"": 4, ""NELM"": 120, ""NSIM"": 1, ""NSW"": 60, ""PREC"": ""Accurate"", ""SIGMA"": 0.2, ""SYSTEM"": ""V-36-d-1.42""}",V-36-d-1.42,450.0,1,1,0.2,Pe,"{""Ti"": 4.0, ""V"": 5.0}",257.0,,V
Segregation-1sol-addvac-T1m-V-V-38-d-2.03,Segregation-1sol-addvac,Segregation-1sol-addvac/T1m/V/V-38-d-2.03,/mnt/e/Onedrive/TiGB-Project/Data/Segregation-1sol-addvac/T1m/V/V-38-d-2.03,CONTCAR,64,Ti63 V1,1756.1076583245747,2.8996780547003476,-486.9312121,-7.6083001890625,"{""ALGO"": ""Fast"", ""AMIX"": 0.01, ""BMIX"": 0.0001, ""EDIFF"": 0.0001, ""EDIFFG"": -0.02, ""ENCUT"": 450.0, ""GGA"": ""Pe"", ""IBRION"": 2, ""ISIF"": 2, ""ISMEAR"": 1, ""ISPIN"": 1, ""ISTART"": 0, ""KPAR"": 4, ""LORBIT"": 10, ""LPLANE"": false, ""LREAL"": ""Auto"", ""NCORE"": 4, ""NELM"": 120, ""NSIM"": 1, ""NSW"": 60, ""PREC"": ""Accurate"", ""SIGMA"": 0.2, ""SYSTEM"": ""V-38-d-2.03""}",V-38-d-2.03,450.0,1,1,0.2,Pe,"{""Ti"": 4.0, ""V"": 5.0}",257.0,,V
Segregation-1sol-addvac-T1m-V-V-40-d-3.20,Segregation-1sol-addvac,Segregation-1sol-addvac/T1m/V/V-40-d-3.20,/mnt/e/Onedrive/TiGB-Project/Data/Segregation-1sol-addvac/T1m/V/V-40-d-3.20,CONTCAR,64,Ti63 V1,1756.1076583245747,2.8996780547003476,-485.91288652,-7.592388851875,"{""ALGO"": ""Fast"", ""AMIX"": 0.01, ""BMIX"": 0.0001, ""EDIFF"": 0.0001, ""EDIFFG"": -0.02, ""ENCUT"": 450.0, ""GGA"": ""Pe"", ""IBRION"": 2, ""ISIF"": 2, ""ISMEAR"": 1, ""ISPIN"": 1, ""ISTART"": 0, ""KPAR"": 4, ""LORBIT"": 10, ""LPLANE"": false, ""LREAL"": ""Auto"", ""NCORE"": 4, ""NELM"": 120, ""NSIM"": 1, ""NSW"": 60, ""PREC"": ""Accurate"", ""SIGMA"": 0.2, ""SYSTEM"": ""V-40-d-3.20""}",V-40-d-3.20,450.0,1,1,0.2,Pe,"{""Ti"": 4.0, ""V"": 5.0}",257.0,,V
Segregation-1sol-addvac-T1m-V-V-41-d-3.20,Segregation-1sol-addvac,Segregation-1sol-addvac/T1m/V/V-41-d-3.20,/mnt/e/Onedrive/TiGB-Project/Data/Segregation-1sol-addvac/T1m/V/V-41-d-3.20,CONTCAR,64,Ti63 V1,1756.1076583245747,2.8996780547003476,-485.92508178,-7.5925794028125,"{""ALGO"": ""Fast"", ""AMIX"": 0.01, ""BMIX"": 0.0001, ""EDIFF"": 0.0001, ""EDIFFG"": -0.02, ""ENCUT"": 450.0, ""GGA"": ""Pe"", ""IBRION"": 2, ""ISIF"": 2, ""ISMEAR"": 1, ""ISPIN"": 1, ""ISTART"": 0, ""KPAR"": 4, ""LORBIT"": 10, ""LPLANE"": false, ""LREAL"": ""Auto"", ""NCORE"": 4, ""NELM"": 120, ""NSIM"": 1, ""NSW"": 60, ""PREC"": ""Accurate"", ""SIGMA"": 0.2, ""SYSTEM"": ""V-41-d-3.20""}",V-41-d-3.20,450.0,1,1,0.2,Pe,"{""Ti"": 4.0, ""V"": 5.0}",257.0,,V
Segregation-1sol-addvac-T1m-V-V-42-d-3.62,Segregation-1sol-addvac,Segregation-1sol-addvac/T1m/V/V-42-d-3.62,/mnt/e/Onedrive/TiGB-Project/Data/Segregation-1sol-addvac/T1m/V/V-42-d-3.62,CONTCAR,64,Ti63 V1,1756.1076583245747,2.8996780547003476,-486.69129931,-7.60455155171875,"{""ALGO"": ""Fast"", ""AMIX"": 0.01, ""BMIX"": 0.0001, ""EDIFF"": 0.0001, ""EDIFFG"": -0.02, ""ENCUT"": 450.0, ""GGA"": ""Pe"", ""IBRION"": 2, ""ISIF"": 2, ""ISMEAR"": 1, ""ISPIN"": 1, ""ISTART"": 0, ""KPAR"": 4, ""LORBIT"": 10, ""LPLANE"": false, ""LREAL"": ""Auto"", ""NCORE"": 4, ""NELM"": 120, ""NSIM"": 1, ""NSW"": 60, ""PREC"": ""Accurate"", ""SIGMA"": 0.2, ""SYSTEM"": ""V-42-d-3.62""}",V-42-d-3.62,450.0,1,1,0.2,Pe,"{""Ti"": 4.0, ""V"": 5.0}",257.0,,V
Segregation-1sol-addvac-T1m-V-V-44-d-4.84,Segregation-1sol-addvac,Segregation-1sol-addvac/T1m/V/V-44-d-4.84,/mnt/e/Onedrive/TiGB-Project/Data/Segregation-1sol-addvac/T1m/V/V-44-d-4.84,CONTCAR,64,Ti63 V1,1756.1076583245747,2.8996780547003476,-486.75687601,-7.60557618765625,"{""ALGO"": ""Fast"", ""AMIX"": 0.01, ""BMIX"": 0.0001, ""EDIFF"": 0.0001, ""EDIFFG"": -0.02, ""ENCUT"": 450.0, ""GGA"": ""Pe"", ""IBRION"": 2, ""ISIF"": 2, ""ISMEAR"": 1, ""ISPIN"": 1, ""ISTART"": 0, ""KPAR"": 4, ""LORBIT"": 10, ""LPLANE"": false, ""LREAL"": ""Auto"", ""NCORE"": 4, ""NELM"": 120, ""NSIM"": 1, ""NSW"": 60, ""PREC"": ""Accurate"", ""SIGMA"": 0.2, ""SYSTEM"": ""V-44-d-4.84""}",V-44-d-4.84,450.0,1,1,0.2,Pe,"{""Ti"": 4.0, ""V"": 5.0}",257.0,,V
Segregation-1sol-addvac-T1m-V-V-46-d-5.43,Segregation-1sol-addvac,Segregation-1sol-addvac/T1m/V/V-46-d-5.43,/mnt/e/Onedrive/TiGB-Project/Data/Segregation-1sol-addvac/T1m/V/V-46-d-5.43,CONTCAR,64,Ti63 V1,1756.1076583245747,2.8996780547003476,-485.80615087,-7.59072110734375,"{""ALGO"": ""Fast"", ""AMIX"": 0.01, ""BMIX"": 0.0001, ""EDIFF"": 0.0001, ""EDIFFG"": -0.02, ""ENCUT"": 450.0, ""GGA"": ""Pe"", ""IBRION"": 2, ""ISIF"": 2, ""ISMEAR"": 1, ""ISPIN"": 1, ""ISTART"": 0, ""KPAR"": 4, ""LORBIT"": 10, ""LPLANE"": false, ""LREAL"": ""Auto"", ""NCORE"": 4, ""NELM"": 120, ""NSIM"": 1, ""NSW"": 60, ""PREC"": ""Accurate"", ""SIGMA"": 0.2, ""SYSTEM"": ""V-46-d-5.43""}",V-46-d-5.43,450.0,1,1,0.2,Pe,"{""Ti"": 4.0, ""V"": 5.0}",257.0,,V
Segregation-1sol-addvac-T1m-V-V-48-d-6.60,Segregation-1sol-addvac,Segregation-1sol-addvac/T1m/V/V-48-d-6.60,/mnt/e/Onedrive/TiGB-Project/Data/Segregation-1sol-addvac/T1m/V/V-48-d-6.60,CONTCAR,64,Ti63 V1,1756.1076583245747,2.8996780547003476,-486.7421072,-7.605345425,"{""ALGO"": ""Fast"", ""AMIX"": 0.01, ""BMIX"": 0.0001, ""EDIFF"": 0.0001, ""EDIFFG"": -0.02, ""ENCUT"": 450.0, ""GGA"": ""Pe"", ""IBRION"": 2, ""ISIF"": 2, ""ISMEAR"": 1, ""ISPIN"": 1, ""ISTART"": 0, ""KPAR"": 4, ""LORBIT"": 10, ""LPLANE"": false, ""LREAL"": ""Auto"", ""NCORE"": 4, ""NELM"": 120, ""NSIM"": 1, ""NSW"": 60, ""PREC"": ""Accurate"", ""SIGMA"": 0.2, ""SYSTEM"": ""V-48-d-6.60""}",V-48-d-6.60,450.0,1,1,0.2,Pe,"{""Ti"": 4.0, ""V"": 5.0}",257.0,,V
Segregation-1sol-addvac-T2-Al-Al-32-d-0.00,Segregation-1sol-addvac,Segregation-1sol-addvac/T2/Al/Al-32-d-0.00,/mnt/e/Onedrive/TiGB-Project/Data/Segregation-1sol-addvac/T2/Al/Al-32-d-0.00,CONTCAR,64,Ti63 Al1,1898.3108162424583,2.6615032392541385,-480.64325115,-7.51005079921875,"{""ALGO"": ""Fast"", ""AMIX"": 0.01, ""BMIX"": 0.0001, ""EDIFF"": 0.0001, ""EDIFFG"": -0.02, ""ENCUT"": 450.0, ""GGA"": ""Pe"", ""IBRION"": 2, ""ISIF"": 2, ""ISMEAR"": 1, ""ISPIN"": 1, ""ISTART"": 0, ""KPAR"": 4, ""LORBIT"": 10, ""LPLANE"": false, ""LREAL"": ""Auto"", ""NCORE"": 4, ""NELM"": 120, ""NSIM"": 1, ""NSW"": 60, ""PREC"": ""Accurate"", ""SIGMA"": 0.2, ""SYSTEM"": ""Al-32-d-0.00""}",Al-32-d-0.00,450.0,1,1,0.2,Pe,"{""Ti"": 4.0, ""Al"": 3.0}",255.0,,Al
Segregation-1sol-addvac-T2-Al-Al-34-d-0.63,Segregation-1sol-addvac,Segregation-1sol-addvac/T2/Al/Al-34-d-0.63,/mnt/e/Onedrive/TiGB-Project/Data/Segregation-1sol-addvac/T2/Al/Al-34-d-0.63,CONTCAR,64,Ti63 Al1,1898.3108162424583,2.6615032392541385,-480.59278995,-7.50926234296875,"{""ALGO"": ""Fast"", ""AMIX"": 0.01, ""BMIX"": 0.0001, ""EDIFF"": 0.0001, ""EDIFFG"": -0.02, ""ENCUT"": 450.0, ""GGA"": ""Pe"", ""IBRION"": 2, ""ISIF"": 2, ""ISMEAR"": 1, ""ISPIN"": 1, ""ISTART"": 0, ""KPAR"": 4, ""LORBIT"": 10, ""LPLANE"": false, ""LREAL"": ""Auto"", ""NCORE"": 4, ""NELM"": 120, ""NSIM"": 1, ""NSW"": 60, ""PREC"": ""Accurate"", ""SIGMA"": 0.2, ""SYSTEM"": ""Al-34-d-0.63""}",Al-34-d-0.63,450.0,1,1,0.2,Pe,"{""Ti"": 4.0, ""Al"": 3.0}",255.0,,Al
Segregation-1sol-addvac-T2-Al-Al-36-d-1.39,Segregation-1sol-addvac,Segregation-1sol-addvac/T2/Al/Al-36-d-1.39,/mnt/e/Onedrive/TiGB-Project/Data/Segregation-1sol-addvac/T2/Al/Al-36-d-1.39,CONTCAR,64,Ti63 Al1,1898.3108162424583,2.6615032392541385,-480.70364003,-7.51099437546875,"{""ALGO"": ""Fast"", ""AMIX"": 0.01, ""BMIX"": 0.0001, ""EDIFF"": 0.0001, ""EDIFFG"": -0.02, ""ENCUT"": 450.0, ""GGA"": ""Pe"", ""IBRION"": 2, ""ISIF"": 2, ""ISMEAR"": 1, ""ISPIN"": 1, ""ISTART"": 0, ""KPAR"": 4, ""LORBIT"": 10, ""LPLANE"": false, ""LREAL"": ""Auto"", ""NCORE"": 4, ""NELM"": 120, ""NSIM"": 1, ""NSW"": 60, ""PREC"": ""Accurate"", ""SIGMA"": 0.2, ""SYSTEM"": ""Al-36-d-1.39""}",Al-36-d-1.39,450.0,1,1,0.2,Pe,"{""Ti"": 4.0, ""Al"": 3.0}",255.0,,Al
Segregation-1sol-addvac-T2-Al-Al-38-d-2.12,Segregation-1sol-addvac,Segregation-1sol-addvac/T2/Al/Al-38-d-2.12,/mnt/e/Onedrive/TiGB-Project/Data/Segregation-1sol-addvac/T2/Al/Al-38-d-2.12,CONTCAR,64,Ti63 Al1,1898.3108162424583,2.6615032392541385,-480.74341372,-7.511615839375,"{""ALGO"": ""Fast"", ""AMIX"": 0.01, ""BMIX"": 0.0001, ""EDIFF"": 0.0001, ""EDIFFG"": -0.02, ""ENCUT"": 450.0, ""GGA"": ""Pe"", ""IBRION"": 2, ""ISIF"": 2, ""ISMEAR"": 1, ""ISPIN"": 1, ""ISTART"": 0, ""KPAR"": 4, ""LORBIT"": 10, ""LPLANE"": false, ""LREAL"": ""Auto"", ""NCORE"": 4, ""NELM"": 120, ""NSIM"": 1, ""NSW"": 60, ""PREC"": ""Accurate"", ""SIGMA"": 0.2, ""SYSTEM"": ""Al-38-d-2.12""}",Al-38-d-2.12,450.0,1,1,0.2,Pe,"{""Ti"": 4.0, ""Al"": 3.0}",255.0,,Al
Segregation-1sol-addvac-T2-Al-Al-40-d-2.77,Segregation-1sol-addvac,Segregation-1sol-addvac/T2/Al/Al-40-d-2.77,/mnt/e/Onedrive/TiGB-Project/Data/Segregation-1sol-addvac/T2/Al/Al-40-d-2.77,CONTCAR,64,Ti63 Al1,1898.3108162424583,2.6615032392541385,-480.71902603,-7.51123478171875,"{""ALGO"": ""Fast"", ""AMIX"": 0.01, ""BMIX"": 0.0001, ""EDIFF"": 0.0001, ""EDIFFG"": -0.02, ""ENCUT"": 450.0, ""GGA"": ""Pe"", ""IBRION"": 2, ""ISIF"": 2, ""ISMEAR"": 1, ""ISPIN"": 1, ""ISTART"": 0, ""KPAR"": 4, ""LORBIT"": 10, ""LPLANE"": false, ""LREAL"": ""Auto"", ""NCORE"": 4, ""NELM"": 120, ""NSIM"": 1, ""NSW"": 60, ""PREC"": ""Accurate"", ""SIGMA"": 0.2, ""SYSTEM"": ""Al-40-d-2.77""}",Al-40-d-2.77,450.0,1,1,0.2,Pe,"{""Ti"": 4.0, ""Al"": 3.0}",255.0,,Al
Segregation-1sol-addvac-T2-Al-Al-42-d-3.50,Segregation-1sol-addvac,Segregation-1sol-addvac/T2/Al/Al-42-d-3.50,/mnt/e/Onedrive/TiGB-Project/Data/Segregation-1sol-addvac/T2/Al/Al-42-d-3.50,CONTCAR,64,Ti63 Al1,1898.3108162424583,2.6615032392541385,-480.71004491,-7.51109445171875,"{""ALGO"": ""Fast"", ""AMIX"": 0.01, ""BMIX"": 0.0001, ""EDIFF"": 0.0001, ""EDIFFG"": -0.02, ""ENCUT"": 450.0, ""GGA"": ""Pe"", ""IBRION"": 2, ""ISIF"": 2, ""ISMEAR"": 1, ""ISPIN"": 1, ""ISTART"": 0, ""KPAR"": 4, ""LORBIT"": 10, ""LPLANE"": false, ""LREAL"": ""Auto"", ""NCORE"": 4, ""NELM"": 120, ""NSIM"": 1, ""NSW"": 60, ""PREC"": ""Accurate"", ""SIGMA"": 0.2, ""SYSTEM"": ""Al-42-d-3.50""}",Al-42-d-3.50,450.0,1,1,0.2,Pe,"{""Ti"": 4.0, ""Al"": 3.0}",255.0,,Al
Segregation-1sol-addvac-T2-Al-Al-44-d-4.19,Segregation-1sol-addvac,Segregation-1sol-addvac/T2/Al/Al-44-d-4.19,/mnt/e/Onedrive/TiGB-Project/Data/Segregation-1sol-addvac/T2/Al/Al-44-d-4.19,CONTCAR,64,Ti63 Al1,1898.3108162424583,2.6615032392541385,-480.65778864,-7.5102779475,"{""ALGO"": ""Fast"", ""AMIX"": 0.01, ""BMIX"": 0.0001, ""EDIFF"": 0.0001, ""EDIFFG"": -0.02, ""ENCUT"": 450.0, ""GGA"": ""Pe"", ""IBRION"": 2, ""ISIF"": 2, ""ISMEAR"": 1, ""ISPIN"": 1, ""ISTART"": 0, ""KPAR"": 4, ""LORBIT"": 10, ""LPLANE"": false, ""LREAL"": ""Auto"", ""NCORE"": 4, ""NELM"": 120, ""NSIM"": 1, ""NSW"": 60, ""PREC"": ""Accurate"", ""SIGMA"": 0.2, ""SYSTEM"": ""Al-44-d-4.19""}",Al-44-d-4.19,450.0,1,1,0.2,Pe,"{""Ti"": 4.0, ""Al"": 3.0}",255.0,,Al
Segregation-1sol-addvac-T2-Al-Al-46-d-4.86,Segregation-1sol-addvac,Segregation-1sol-addvac/T2/Al/Al-46-d-4.86,/mnt/e/Onedrive/TiGB-Project/Data/Segregation-1sol-addvac/T2/Al/Al-46-d-4.86,CONTCAR,64,Ti63 Al1,1898.3108162424583,2.6615032392541385,-480.6492248,-7.5101441375,"{""ALGO"": ""Fast"", ""AMIX"": 0.01, ""BMIX"": 0.0001, ""EDIFF"": 0.0001, ""EDIFFG"": -0.02, ""ENCUT"": 450.0, ""GGA"": ""Pe"", ""IBRION"": 2, ""ISIF"": 2, ""ISMEAR"": 1, ""ISPIN"": 1, ""ISTART"": 0, ""KPAR"": 4, ""LORBIT"": 10, ""LPLANE"": false, ""LREAL"": ""Auto"", ""NCORE"": 4, ""NELM"": 120, ""NSIM"": 1, ""NSW"": 60, ""PREC"": ""Accurate"", ""SIGMA"": 0.2, ""SYSTEM"": ""Al-46-d-4.86""}",Al-46-d-4.86,450.0,1,1,0.2,Pe,"{""Ti"": 4.0, ""Al"": 3.0}",255.0,,Al
Segregation-1sol-addvac-T2-Al-Al-48-d-5.58,Segregation-1sol-addvac,Segregation-1sol-addvac/T2/Al/Al-48-d-5.58,/mnt/e/Onedrive/TiGB-Project/Data/Segregation-1sol-addvac/T2/Al/Al-48-d-5.58,CONTCAR,64,Ti63 Al1,1898.3108162424583,2.6615032392541385,-480.67571297,-7.51055801515625,"{""ALGO"": ""Fast"", ""AMIX"": 0.01, ""BMIX"": 0.0001, ""EDIFF"": 0.0001, ""EDIFFG"": -0.02, ""ENCUT"": 450.0, ""GGA"": ""Pe"", ""IBRION"": 2, ""ISIF"": 2, ""ISMEAR"": 1, ""ISPIN"": 1, ""ISTART"": 0, ""KPAR"": 4, ""LORBIT"": 10, ""LPLANE"": false, ""LREAL"": ""Auto"", ""NCORE"": 4, ""NELM"": 120, ""NSIM"": 1, ""NSW"": 60, ""PREC"": ""Accurate"", ""SIGMA"": 0.2, ""SYSTEM"": ""Al-48-d-5.58""}",Al-48-d-5.58,450.0,1,1,0.2,Pe,"{""Ti"": 4.0, ""Al"": 3.0}",255.0,"vasprun:no element found: line 5987, column 0",Al
Segregation-1sol-addvac-T2-Al-Al-50-d-6.29,Segregation-1sol-addvac,Segregation-1sol-addvac/T2/Al/Al-50-d-6.29,/mnt/e/Onedrive/TiGB-Project/Data/Segregation-1sol-addvac/T2/Al/Al-50-d-6.29,CONTCAR,64,Ti63 Al1,1898.3108162424583,2.6615032392541385,-480.6709265,-7.5104832265625,"{""ALGO"": ""Fast"", ""AMIX"": 0.01, ""BMIX"": 0.0001, ""EDIFF"": 0.0001, ""EDIFFG"": -0.02, ""ENCUT"": 450.0, ""GGA"": ""Pe"", ""IBRION"": 2, ""ISIF"": 2, ""ISMEAR"": 1, ""ISPIN"": 1, ""ISTART"": 0, ""KPAR"": 4, ""LORBIT"": 10, ""LPLANE"": false, ""LREAL"": ""Auto"", ""NCORE"": 4, ""NELM"": 120, ""NSIM"": 1, ""NSW"": 60, ""PREC"": ""Accurate"", ""SIGMA"": 0.2, ""SYSTEM"": ""Al-50-d-6.29""}",Al-50-d-6.29,450.0,1,1,0.2,Pe,"{""Ti"": 4.0, ""Al"": 3.0}",255.0,,Al
Segregation-1sol-addvac-T2-Al-Al-52-d-6.97,Segregation-1sol-addvac,Segregation-1sol-addvac/T2/Al/Al-52-d-6.97,/mnt/e/Onedrive/TiGB-Project/Data/Segregation-1sol-addvac/T2/Al/Al-52-d-6.97,CONTCAR,64,Ti63 Al1,1898.3108162424583,2.6615032392541385,-480.67579129,-7.51055923890625,"{""ALGO"": ""Fast"", ""AMIX"": 0.01, ""BMIX"": 0.0001, ""EDIFF"": 0.0001, ""EDIFFG"": -0.02, ""ENCUT"": 450.0, ""GGA"": ""Pe"", ""IBRION"": 2, ""ISIF"": 2, ""ISMEAR"": 1, ""ISPIN"": 1, ""ISTART"": 0, ""KPAR"": 4, ""LORBIT"": 10, ""LPLANE"": false, ""LREAL"": ""Auto"", ""NCORE"": 4, ""NELM"": 120, ""NSIM"": 1, ""NSW"": 60, ""PREC"": ""Accurate"", ""SIGMA"": 0.2, ""SYSTEM"": ""Al-52-d-6.97""}",Al-52-d-6.97,450.0,1,1,0.2,Pe,"{""Ti"": 4.0, ""Al"": 3.0}",255.0,,Al
Segregation-1sol-addvac-T2-V-V-32-d-0.00,Segregation-1sol-addvac,Segregation-1sol-addvac/T2/V/V-32-d-0.00,/mnt/e/Onedrive/TiGB-Project/Data/Segregation-1sol-addvac/T2/V/V-32-d-0.00,CONTCAR,64,Ti63 V1,1898.3108162424583,2.6824621105064597,-484.76025011,-7.57437890796875,"{""ALGO"": ""Fast"", ""AMIX"": 0.01, ""BMIX"": 0.0001, ""EDIFF"": 0.0001, ""EDIFFG"": -0.02, ""ENCUT"": 450.0, ""GGA"": ""Pe"", ""IBRION"": 2, ""ISIF"": 2, ""ISMEAR"": 1, ""ISPIN"": 1, ""ISTART"": 0, ""KPAR"": 4, ""LORBIT"": 10, ""LPLANE"": false, ""LREAL"": ""Auto"", ""NCORE"": 4, ""NELM"": 120, ""NSIM"": 1, ""NSW"": 60, ""PREC"": ""Accurate"", ""SIGMA"": 0.2, ""SYSTEM"": ""V-32-d-0.00""}",V-32-d-0.00,450.0,1,1,0.2,Pe,"{""Ti"": 4.0, ""V"": 5.0}",257.0,,V
Segregation-1sol-addvac-T2-V-V-34-d-0.63,Segregation-1sol-addvac,Segregation-1sol-addvac/T2/V/V-34-d-0.63,/mnt/e/Onedrive/TiGB-Project/Data/Segregation-1sol-addvac/T2/V/V-34-d-0.63,CONTCAR,64,Ti63 V1,1898.3108162424583,2.6824621105064597,-484.84239986,-7.5756624978125,"{""ALGO"": ""Fast"", ""AMIX"": 0.01, ""BMIX"": 0.0001, ""EDIFF"": 0.0001, ""EDIFFG"": -0.02, ""ENCUT"": 450.0, ""GGA"": ""Pe"", ""IBRION"": 2, ""ISIF"": 2, ""ISMEAR"": 1, ""ISPIN"": 1, ""ISTART"": 0, ""KPAR"": 4, ""LORBIT"": 10, ""LPLANE"": false, ""LREAL"": ""Auto"", ""NCORE"": 4, ""NELM"": 120, ""NSIM"": 1, ""NSW"": 60, ""PREC"": ""Accurate"", ""SIGMA"": 0.2, ""SYSTEM"": ""V-34-d-0.63""}",V-34-d-0.63,450.0,1,1,0.2,Pe,"{""Ti"": 4.0, ""V"": 5.0}",257.0,,V
Segregation-1sol-addvac-T2-V-V-35-d-0.63,Segregation-1sol-addvac,Segregation-1sol-addvac/T2/V/V-35-d-0.63,/mnt/e/Onedrive/TiGB-Project/Data/Segregation-1sol-addvac/T2/V/V-35-d-0.63,CONTCAR,64,Ti63 V1,1898.3108162424583,2.6824621105064597,-484.84126526,-7.5756447696875,"{""ALGO"": ""Normal"", ""AMIX"": 0.01, ""BMIX"": 0.0001, ""EDIFF"": 0.0001, ""EDIFFG"": -0.02, ""ENCUT"": 450.0, ""GGA"": ""Pe"", ""IBRION"": 2, ""ISIF"": 2, ""ISMEAR"": 1, ""ISPIN"": 1, ""ISTART"": 0, ""KPAR"": 4, ""LORBIT"": 10, ""LPLANE"": false, ""LREAL"": ""Auto"", ""NCORE"": 4, ""NELM"": 120, ""NSIM"": 1, ""NSW"": 60, ""PREC"": ""Accurate"", ""SIGMA"": 0.2, ""SYSTEM"": ""V-35-d-0.63""}",V-35-d-0.63,450.0,1,1,0.2,Pe,"{""Ti"": 4.0, ""V"": 5.0}",257.0,,V
Segregation-1sol-addvac-T2-V-V-36-d-1.39,Segregation-1sol-addvac,Segregation-1sol-addvac/T2/V/V-36-d-1.39,/mnt/e/Onedrive/TiGB-Project/Data/Segregation-1sol-addvac/T2/V/V-36-d-1.39,CONTCAR,64,Ti63 V1,1898.3108162424583,2.6824621105064597,-484.62810804,-7.572314188125,"{""ALGO"": ""Fast"", ""AMIX"": 0.01, ""BMIX"": 0.0001, ""EDIFF"": 0.0001, ""EDIFFG"": -0.02, ""ENCUT"": 450.0, ""GGA"": ""Pe"", ""IBRION"": 2, ""ISIF"": 2, ""ISMEAR"": 1, ""ISPIN"": 1, ""ISTART"": 0, ""KPAR"": 4, ""LORBIT"": 10, ""LPLANE"": false, ""LREAL"": ""Auto"", ""NCORE"": 4, ""NELM"": 120, ""NSIM"": 1, ""NSW"": 60, ""PREC"": ""Accurate"", ""SIGMA"": 0.2, ""SYSTEM"": ""V-36-d-1.39""}",V-36-d-1.39,450.0,1,1,0.2,Pe,"{""Ti"": 4.0, ""V"": 5.0}",257.0,,V
Segregation-1sol-addvac-T2-V-V-38-d-2.12,Segregation-1sol-addvac,Segregation-1sol-addvac/T2/V/V-38-d-2.12,/mnt/e/Onedrive/TiGB-Project/Data/Segregation-1sol-addvac/T2/V/V-38-d-2.12,CONTCAR,64,Ti63 V1,1898.3108162424583,2.6824621105064597,-484.69993755,-7.57343652421875,"{""ALGO"": ""Fast"", ""AMIX"": 0.01, ""BMIX"": 0.0001, ""EDIFF"": 0.0001, ""EDIFFG"": -0.02, ""ENCUT"": 450.0, ""GGA"": ""Pe"", ""IBRION"": 2, ""ISIF"": 2, ""ISMEAR"": 1, ""ISPIN"": 1, ""ISTART"": 0, ""KPAR"": 4, ""LORBIT"": 10, ""LPLANE"": false, ""LREAL"": ""Auto"", ""NCORE"": 4, ""NELM"": 120, ""NSIM"": 1, ""NSW"": 60, ""PREC"": ""Accurate"", ""SIGMA"": 0.2, ""SYSTEM"": ""V-38-d-2.12""}",V-38-d-2.12,450.0,1,1,0.2,Pe,"{""Ti"": 4.0, ""V"": 5.0}",257.0,,V