job_name,top_level,relpath,path,structure_file,num_atoms,formula,volume,density,energy_eV,energy_per_atom_eV,incar,incar_system,incar_encut,incar_ispin,incar_ismear,incar_sigma,incar_gga,potcar_nelectrons_map,potcar_total_nelectrons,parse_errors,solute
BondOrder-VacuumGB-CSL13-V-V-58-d-4.19,BondOrder-VacuumGB,BondOrder-VacuumGB/CSL13/V/V-58-d-4.19,/mnt/e/Onedrive/TiGB-Project/Data/BondOrder-VacuumGB/CSL13/V/V-58-d-4.19,CONTCAR,100,Ti99 V1,2379.742335475211,3.342213806091952,-761.1224651,-7.611224651,"{""ALGO"": ""Fast"", ""AMIX"": 0.01, ""BMIX"": 0.0001, ""EDIFF"": 1e-05, ""EDIFFG"": -0.01, ""ENCUT"": 450.0, ""GGA"": ""Pe"", ""IBRION"": 2, ""ISIF"": 2, ""ISMEAR"": 1, ""ISPIN"": 1, ""ISTART"": 0, ""KPAR"": 1, ""LAECHG"": true, ""LCHARG"": true, ""LORBIT"": 10, ""LPLANE"": false, ""LREAL"": ""Auto"", ""NCORE"": 4, ""NELM"": 300, ""NSIM"": 1, ""NSW"": 2, ""PREC"": ""Accurate"", ""SIGMA"": 0.2, ""SYSTEM"": ""V-58-d-4.19""}",V-58-d-4.19,450.0,1,1,0.2,Pe,"{""Ti"": 4.0, ""V"": 5.0}",401.0,,V
BondOrder-VacuumGB-CSL13-V-V-59-d-4.19,BondOrder-VacuumGB,BondOrder-VacuumGB/CSL13/V/V-59-d-4.19,/mnt/e/Onedrive/TiGB-Project/Data/BondOrder-VacuumGB/CSL13/V/V-59-d-4.19,CONTCAR,100,Ti99 V1,2379.742335475211,3.342213806091952,-761.12717995,-7.6112717995,"{""ALGO"": ""Fast"", ""AMIX"": 0.01, ""BMIX"": 0.0001, ""EDIFF"": 1e-05, ""EDIFFG"": -0.01, ""ENCUT"": 450.0, ""GGA"": ""Pe"", ""IBRION"": 2, ""ISIF"": 2, ""ISMEAR"": 1, ""ISPIN"": 1, ""ISTART"": 0, ""KPAR"": 1, ""LAECHG"": true, ""LCHARG"": true, ""LORBIT"": 10, ""LPLANE"": false, ""LREAL"": ""Auto"", ""NCORE"": 4, ""NELM"": 300, ""NSIM"": 1, ""NSW"": 2, ""PREC"": ""Accurate"", ""SIGMA"": 0.2, ""SYSTEM"": ""V-59-d-4.19""}",V-59-d-4.19,450.0,1,1,0.2,Pe,"{""Ti"": 4.0, ""V"": 5.0}",401.0,,V
BondOrder-VacuumGB-CSL13-V-V-60-d-5.27,BondOrder-VacuumGB,BondOrder-VacuumGB/CSL13/V/V-60-d-5.27,/mnt/e/Onedrive/TiGB-Project/Data/BondOrder-VacuumGB/CSL13/V/V-60-d-5.27,CONTCAR,100,Ti99 V1,2379.742335475211,3.342213806091952,-761.22426233,-7.6122426233,"{""ALGO"": ""Fast"", ""AMIX"": 0.01, ""BMIX"": 0.0001, ""EDIFF"": 1e-05, ""EDIFFG"": -0.01, ""ENCUT"": 450.0, ""GGA"": ""Pe"", ""IBRION"": 2, ""ISIF"": 2, ""ISMEAR"": 1, ""ISPIN"": 1, ""ISTART"": 0, ""KPAR"": 1, ""LAECHG"": true, ""LCHARG"": true, ""LORBIT"": 10, ""LPLANE"": false, ""LREAL"": ""Auto"", ""NCORE"": 4, ""NELM"": 300, ""NSIM"": 1, ""NSW"": 2, ""PREC"": ""Accurate"", ""SIGMA"": 0.2, ""SYSTEM"": ""V-60-d-5.27""}",V-60-d-5.27,450.0,1,1,0.2,Pe,"{""Ti"": 4.0, ""V"": 5.0}",401.0,,V
BondOrder-VacuumGB-CSL13-V-V-61-d-5.27,BondOrder-VacuumGB,BondOrder-VacuumGB/CSL13/V/V-61-d-5.27,/mnt/e/Onedrive/TiGB-Project/Data/BondOrder-VacuumGB/CSL13/V/V-61-d-5.27,CONTCAR,100,Ti99 V1,2379.742335475211,3.342213806091952,-761.24021601,-7.6124021601,"{""ALGO"": ""Fast"", ""AMIX"": 0.01, ""BMIX"": 0.0001, ""EDIFF"": 1e-05, ""EDIFFG"": -0.01, ""ENCUT"": 450.0, ""GGA"": ""Pe"", ""IBRION"": 2, ""ISIF"": 2, ""ISMEAR"": 1, ""ISPIN"": 1, ""ISTART"": 0, ""KPAR"": 1, ""LAECHG"": true, ""LCHARG"": true, ""LORBIT"": 10, ""LPLANE"": false, ""LREAL"": ""Auto"", ""NCORE"": 4, ""NELM"": 300, ""NSIM"": 1, ""NSW"": 2, ""PREC"": ""Accurate"", ""SIGMA"": 0.2, ""SYSTEM"": ""V-61-d-5.27""}",V-61-d-5.27,450.0,1,1,0.2,Pe,"{""Ti"": 4.0, ""V"": 5.0}",401.0,,V
BondOrder-VacuumGB-CSL13-V-V-62-d-5.77,BondOrder-VacuumGB,BondOrder-VacuumGB/CSL13/V/V-62-d-5.77,/mnt/e/Onedrive/TiGB-Project/Data/BondOrder-VacuumGB/CSL13/V/V-62-d-5.77,CONTCAR,100,Ti99 V1,2379.742335475211,3.342213806091952,-760.97242865,-7.6097242865,"{""ALGO"": ""Fast"", ""AMIX"": 0.01, ""BMIX"": 0.0001, ""EDIFF"": 1e-05, ""EDIFFG"": -0.01, ""ENCUT"": 450.0, ""GGA"": ""Pe"", ""IBRION"": 2, ""ISIF"": 2, ""ISMEAR"": 1, ""ISPIN"": 1, ""ISTART"": 0, ""KPAR"": 1, ""LAECHG"": true, ""LCHARG"": true, ""LORBIT"": 10, ""LPLANE"": false, ""LREAL"": ""Auto"", ""NCORE"": 4, ""NELM"": 300, ""NSIM"": 1, ""NSW"": 2, ""PREC"": ""Accurate"", ""SIGMA"": 0.2, ""SYSTEM"": ""V-62-d-5.77""}",V-62-d-5.77,450.0,1,1,0.2,Pe,"{""Ti"": 4.0, ""V"": 5.0}",401.0,,V
BondOrder-VacuumGB-CSL13-V-V-63-d-5.77,BondOrder-VacuumGB,BondOrder-VacuumGB/CSL13/V/V-63-d-5.77,/mnt/e/Onedrive/TiGB-Project/Data/BondOrder-VacuumGB/CSL13/V/V-63-d-5.77,CONTCAR,100,Ti99 V1,2379.742335475211,3.342213806091952,-760.98890391,-7.6098890391,"{""ALGO"": ""Fast"", ""AMIX"": 0.01, ""BMIX"": 0.0001, ""EDIFF"": 1e-05, ""EDIFFG"": -0.01, ""ENCUT"": 450.0, ""GGA"": ""Pe"", ""IBRION"": 2, ""ISIF"": 2, ""ISMEAR"": 1, ""ISPIN"": 1, ""ISTART"": 0, ""KPAR"": 1, ""LAECHG"": true, ""LCHARG"": true, ""LORBIT"": 10, ""LPLANE"": false, ""LREAL"": ""Auto"", ""NCORE"": 4, ""NELM"": 300, ""NSIM"": 1, ""NSW"": 2, ""PREC"": ""Accurate"", ""SIGMA"": 0.2, ""SYSTEM"": ""V-63-d-5.77""}",V-63-d-5.77,450.0,1,1,0.2,Pe,"{""Ti"": 4.0, ""V"": 5.0}",401.0,,V
BondOrder-VacuumGB-CSL13-V-V-64-d-6.97,BondOrder-VacuumGB,BondOrder-VacuumGB/CSL13/V/V-64-d-6.97,/mnt/e/Onedrive/TiGB-Project/Data/BondOrder-VacuumGB/CSL13/V/V-64-d-6.97,CONTCAR,100,Ti99 V1,2379.742335475211,3.342213806091952,-764.76713398,-7.6476713398000005,"{""ALGO"": ""Fast"", ""AMIX"": 0.01, ""BMIX"": 0.0001, ""EDIFF"": 1e-05, ""EDIFFG"": -0.01, ""ENCUT"": 450.0, ""GGA"": ""Pe"", ""IBRION"": 2, ""ISIF"": 2, ""ISMEAR"": 1, ""ISPIN"": 1, ""ISTART"": 0, ""KPAR"": 1, ""LAECHG"": true, ""LCHARG"": true, ""LORBIT"": 10, ""LPLANE"": false, ""LREAL"": ""Auto"", ""NCORE"": 4, ""NELM"": 300, ""NSIM"": 1, ""NSW"": 2, ""PREC"": ""Accurate"", ""SIGMA"": 0.2, ""SYSTEM"": ""V-64-d-6.97""}",V-64-d-6.97,450.0,1,1,0.2,Pe,"{""Ti"": 4.0, ""V"": 5.0}",401.0,,V
BondOrder-VacuumGB-CSL13-V-V-65-d-6.97,BondOrder-VacuumGB,BondOrder-VacuumGB/CSL13/V/V-65-d-6.97,/mnt/e/Onedrive/TiGB-Project/Data/BondOrder-VacuumGB/CSL13/V/V-65-d-6.97,CONTCAR,100,Ti99 V1,2379.742335475211,3.342213806091952,-764.76782629,-7.6476782629,"{""ALGO"": ""Fast"", ""AMIX"": 0.01, ""BMIX"": 0.0001, ""EDIFF"": 1e-05, ""EDIFFG"": -0.01, ""ENCUT"": 450.0, ""GGA"": ""Pe"", ""IBRION"": 2, ""ISIF"": 2, ""ISMEAR"": 1, ""ISPIN"": 1, ""ISTART"": 0, ""KPAR"": 1, ""LAECHG"": true, ""LCHARG"": true, ""LORBIT"": 10, ""LPLANE"": false, ""LREAL"": ""Auto"", ""NCORE"": 4, ""NELM"": 300, ""NSIM"": 1, ""NSW"": 2, ""PREC"": ""Accurate"", ""SIGMA"": 0.2, ""SYSTEM"": ""V-65-d-6.97""}",V-65-d-6.97,450.0,1,1,0.2,Pe,"{""Ti"": 4.0, ""V"": 5.0}",401.0,,V
BondOrder-VacuumGB-CSL7-Al-Al-24-d-0.00,BondOrder-VacuumGB,BondOrder-VacuumGB/CSL7/Al/Al-24-d-0.00,/mnt/e/Onedrive/TiGB-Project/Data/BondOrder-VacuumGB/CSL7/Al/Al-24-d-0.00,CONTCAR,52,Ti51 Al1,1485.2379288157726,2.759517531621646,-388.04168305,-7.462340058653846,"{""ALGO"": ""Fast"", ""AMIX"": 0.01, ""BMIX"": 0.0001, ""EDIFF"": 1e-05, ""EDIFFG"": -0.01, ""ENCUT"": 450.0, ""GGA"": ""Pe"", ""IBRION"": 2, ""ISIF"": 2, ""ISMEAR"": 1, ""ISPIN"": 1, ""ISTART"": 0, ""KPAR"": 1, ""LAECHG"": true, ""LCHARG"": true, ""LORBIT"": 10, ""LPLANE"": false, ""LREAL"": ""Auto"", ""NCORE"": 4, ""NELM"": 300, ""NSIM"": 1, ""NSW"": 2, ""PREC"": ""Accurate"", ""SIGMA"": 0.2, ""SYSTEM"": ""Al-24-d-0.00""}",Al-24-d-0.00,450.0,1,1,0.2,Pe,"{""Ti"": 4.0, ""Al"": 3.0}",207.0,,Al
BondOrder-VacuumGB-CSL7-Al-Al-25-d-0.00,BondOrder-VacuumGB,BondOrder-VacuumGB/CSL7/Al/Al-25-d-0.00,/mnt/e/Onedrive/TiGB-Project/Data/BondOrder-VacuumGB/CSL7/Al/Al-25-d-0.00,CONTCAR,52,Ti51 Al1,1485.2379288157726,2.759517531621646,-388.16689766,-7.464748031923078,"{""ALGO"": ""Fast"", ""AMIX"": 0.01, ""BMIX"": 0.0001, ""EDIFF"": 1e-05, ""EDIFFG"": -0.01, ""ENCUT"": 450.0, ""GGA"": ""Pe"", ""IBRION"": 2, ""ISIF"": 2, ""ISMEAR"": 1, ""ISPIN"": 1, ""ISTART"": 0, ""KPAR"": 1, ""LAECHG"": true, ""LCHARG"": true, ""LORBIT"": 10, ""LPLANE"": false, ""LREAL"": ""Auto"", ""NCORE"": 4, ""NELM"": 300, ""NSIM"": 1, ""NSW"": 2, ""PREC"": ""Accurate"", ""SIGMA"": 0.2, ""SYSTEM"": ""Al-25-d-0.00""}",Al-25-d-0.00,450.0,1,1,0.2,Pe,"{""Ti"": 4.0, ""Al"": 3.0}",207.0,,Al
BondOrder-VacuumGB-CSL7-Al-Al-26-d-0.72,BondOrder-VacuumGB,BondOrder-VacuumGB/CSL7/Al/Al-26-d-0.72,/mnt/e/Onedrive/TiGB-Project/Data/BondOrder-VacuumGB/CSL7/Al/Al-26-d-0.72,CONTCAR,52,Ti51 Al1,1485.2379288157726,2.759517531621646,-387.81728338,-7.458024680384615,"{""ALGO"": ""Fast"", ""AMIX"": 0.01, ""BMIX"": 0.0001, ""EDIFF"": 1e-05, ""EDIFFG"": -0.01, ""ENCUT"": 450.0, ""GGA"": ""Pe"", ""IBRION"": 2, ""ISIF"": 2, ""ISMEAR"": 1, ""ISPIN"": 1, ""ISTART"": 0, ""KPAR"": 1, ""LAECHG"": true, ""LCHARG"": true, ""LORBIT"": 10, ""LPLANE"": false, ""LREAL"": ""Auto"", ""NCORE"": 4, ""NELM"": 300, ""NSIM"": 1, ""NSW"": 2, ""PREC"": ""Accurate"", ""SIGMA"": 0.2, ""SYSTEM"": ""Al-26-d-0.72""}",Al-26-d-0.72,450.0,1,1,0.2,Pe,"{""Ti"": 4.0, ""Al"": 3.0}",207.0,,Al
BondOrder-VacuumGB-CSL7-Al-Al-27-d-1.36,BondOrder-VacuumGB,BondOrder-VacuumGB/CSL7/Al/Al-27-d-1.36,/mnt/e/Onedrive/TiGB-Project/Data/BondOrder-VacuumGB/CSL7/Al/Al-27-d-1.36,CONTCAR,52,Ti51 Al1,1485.2379288157726,2.759517531621646,-386.86989539,-7.4398056805769235,"{""ALGO"": ""Fast"", ""AMIX"": 0.01, ""BMIX"": 0.0001, ""EDIFF"": 1e-05, ""EDIFFG"": -0.01, ""ENCUT"": 450.0, ""GGA"": ""Pe"", ""IBRION"": 2, ""ISIF"": 2, ""ISMEAR"": 1, ""ISPIN"": 1, ""ISTART"": 0, ""KPAR"": 1, ""LAECHG"": true, ""LCHARG"": true, ""LORBIT"": 10, ""LPLANE"": false, ""LREAL"": ""Auto"", ""NCORE"": 4, ""NELM"": 300, ""NSIM"": 1, ""NSW"": 2, ""PREC"": ""Accurate"", ""SIGMA"": 0.2, ""SYSTEM"": ""Al-27-d-1.36""}",Al-27-d-1.36,450.0,1,1,0.2,Pe,"{""Ti"": 4.0, ""Al"": 3.0}",207.0,,Al
BondOrder-VacuumGB-CSL7-Al-Al-28-d-1.62,BondOrder-VacuumGB,BondOrder-VacuumGB/CSL7/Al/Al-28-d-1.62,/mnt/e/Onedrive/TiGB-Project/Data/BondOrder-VacuumGB/CSL7/Al/Al-28-d-1.62,CONTCAR,52,Ti51 Al1,1485.2379288157726,2.759517531621646,-388.25350419,-7.466413542115385,"{""ALGO"": ""Fast"", ""AMIX"": 0.01, ""BMIX"": 0.0001, ""EDIFF"": 1e-05, ""EDIFFG"": -0.01, ""ENCUT"": 450.0, ""GGA"": ""Pe"", ""IBRION"": 2, ""ISIF"": 2, ""ISMEAR"": 1, ""ISPIN"": 1, ""ISTART"": 0, ""KPAR"": 1, ""LAECHG"": true, ""LCHARG"": true, ""LORBIT"": 10, ""LPLANE"": false, ""LREAL"": ""Auto"", ""NCORE"": 4, ""NELM"": 300, ""NSIM"": 1, ""NSW"": 2, ""PREC"": ""Accurate"", ""SIGMA"": 0.2, ""SYSTEM"": ""Al-28-d-1.62""}",Al-28-d-1.62,450.0,1,1,0.2,Pe,"{""Ti"": 4.0, ""Al"": 3.0}",207.0,,Al
BondOrder-VacuumGB-CSL7-Al-Al-29-d-2.09,BondOrder-VacuumGB,BondOrder-VacuumGB/CSL7/Al/Al-29-d-2.09,/mnt/e/Onedrive/TiGB-Project/Data/BondOrder-VacuumGB/CSL7/Al/Al-29-d-2.09,CONTCAR,52,Ti51 Al1,1485.2379288157726,2.759517531621646,-388.11093718,-7.463671868846154,"{""ALGO"": ""Fast"", ""AMIX"": 0.01, ""BMIX"": 0.0001, ""EDIFF"": 1e-05, ""EDIFFG"": -0.01, ""ENCUT"": 450.0, ""GGA"": ""Pe"", ""IBRION"": 2, ""ISIF"": 2, ""ISMEAR"": 1, ""ISPIN"": 1, ""ISTART"": 0, ""KPAR"": 1, ""LAECHG"": true, ""LCHARG"": true, ""LORBIT"": 10, ""LPLANE"": false, ""LREAL"": ""Auto"", ""NCORE"": 4, ""NELM"": 300, ""NSIM"": 1, ""NSW"": 2, ""PREC"": ""Accurate"", ""SIGMA"": 0.2, ""SYSTEM"": ""Al-29-d-2.09""}",Al-29-d-2.09,450.0,1,1,0.2,Pe,"{""Ti"": 4.0, ""Al"": 3.0}",207.0,,Al
BondOrder-VacuumGB-CSL7-Al-Al-30-d-2.82,BondOrder-VacuumGB,BondOrder-VacuumGB/CSL7/Al/Al-30-d-2.82,/mnt/e/Onedrive/TiGB-Project/Data/BondOrder-VacuumGB/CSL7/Al/Al-30-d-2.82,CONTCAR,52,Ti51 Al1,1485.2379288157726,2.759517531621646,-387.0886048,-7.44401163076923,"{""ALGO"": ""Fast"", ""AMIX"": 0.01, ""BMIX"": 0.0001, ""EDIFF"": 1e-05, ""EDIFFG"": -0.01, ""ENCUT"": 450.0, ""GGA"": ""Pe"", ""IBRION"": 2, ""ISIF"": 2, ""ISMEAR"": 1, ""ISPIN"": 1, ""ISTART"": 0, ""KPAR"": 1, ""LAECHG"": true, ""LCHARG"": true, ""LORBIT"": 10, ""LPLANE"": false, ""LREAL"": ""Auto"", ""NCORE"": 4, ""NELM"": 300, ""NSIM"": 1, ""NSW"": 2, ""PREC"": ""Accurate"", ""SIGMA"": 0.2, ""SYSTEM"": ""Al-30-d-2.82""}",Al-30-d-2.82,450.0,1,1,0.2,Pe,"{""Ti"": 4.0, ""Al"": 3.0}",207.0,,Al
BondOrder-VacuumGB-CSL7-Al-Al-31-d-3.01,BondOrder-VacuumGB,BondOrder-VacuumGB/CSL7/Al/Al-31-d-3.01,/mnt/e/Onedrive/TiGB-Project/Data/BondOrder-VacuumGB/CSL7/Al/Al-31-d-3.01,CONTCAR,52,Ti51 Al1,1485.2379288157726,2.759517531621646,-388.23026678,-7.465966668846154,"{""ALGO"": ""Fast"", ""AMIX"": 0.01, ""BMIX"": 0.0001, ""EDIFF"": 1e-05, ""EDIFFG"": -0.01, ""ENCUT"": 450.0, ""GGA"": ""Pe"", ""IBRION"": 2, ""ISIF"": 2, ""ISMEAR"": 1, ""ISPIN"": 1, ""ISTART"": 0, ""KPAR"": 1, ""LAECHG"": true, ""LCHARG"": true, ""LORBIT"": 10, ""LPLANE"": false, ""LREAL"": ""Auto"", ""NCORE"": 4, ""NELM"": 300, ""NSIM"": 1, ""NSW"": 2, ""PREC"": ""Accurate"", ""SIGMA"": 0.2, ""SYSTEM"": ""Al-31-d-3.01""}",Al-31-d-3.01,450.0,1,1,0.2,Pe,"{""Ti"": 4.0, ""Al"": 3.0}",207.0,,Al
BondOrder-VacuumGB-CSL7-Al-Al-32-d-3.65,BondOrder-VacuumGB,BondOrder-VacuumGB/CSL7/Al/Al-32-d-3.65,/mnt/e/Onedrive/TiGB-Project/Data/BondOrder-VacuumGB/CSL7/Al/Al-32-d-3.65,CONTCAR,52,Ti51 Al1,1485.2379288157726,2.759517531621646,-388.2435145,-7.466221432692308,"{""ALGO"": ""Fast"", ""AMIX"": 0.01, ""BMIX"": 0.0001, ""EDIFF"": 1e-05, ""EDIFFG"": -0.01, ""ENCUT"": 450.0, ""GGA"": ""Pe"", ""IBRION"": 2, ""ISIF"": 2, ""ISMEAR"": 1, ""ISPIN"": 1, ""ISTART"": 0, ""KPAR"": 1, ""LAECHG"": true, ""LCHARG"": true, ""LORBIT"": 10, ""LPLANE"": false, ""LREAL"": ""Auto"", ""NCORE"": 4, ""NELM"": 300, ""NSIM"": 1, ""NSW"": 2, ""PREC"": ""Accurate"", ""SIGMA"": 0.2, ""SYSTEM"": ""Al-32-d-3.65""}",Al-32-d-3.65,450.0,1,1,0.2,Pe,"{""Ti"": 4.0, ""Al"": 3.0}",207.0,,Al
BondOrder-VacuumGB-CSL7-Al-Al-33-d-4.09,BondOrder-VacuumGB,BondOrder-VacuumGB/CSL7/Al/Al-33-d-4.09,/mnt/e/Onedrive/TiGB-Project/Data/BondOrder-VacuumGB/CSL7/Al/Al-33-d-4.09,CONTCAR,52,Ti51 Al1,1485.2379288157726,2.759517531621646,-388.43995671,-7.4699991675,"{""ALGO"": ""Fast"", ""AMIX"": 0.01, ""BMIX"": 0.0001, ""EDIFF"": 1e-05, ""EDIFFG"": -0.01, ""ENCUT"": 450.0, ""GGA"": ""Pe"", ""IBRION"": 2, ""ISIF"": 2, ""ISMEAR"": 1, ""ISPIN"": 1, ""ISTART"": 0, ""KPAR"": 1, ""LAECHG"": true, ""LCHARG"": true, ""LORBIT"": 10, ""LPLANE"": false, ""LREAL"": ""Auto"", ""NCORE"": 4, ""NELM"": 300, ""NSIM"": 1, ""NSW"": 2, ""PREC"": ""Accurate"", ""SIGMA"": 0.2, ""SYSTEM"": ""Al-33-d-4.09""}",Al-33-d-4.09,450.0,1,1,0.2,Pe,"{""Ti"": 4.0, ""Al"": 3.0}",207.0,,Al
BondOrder-VacuumGB-CSL7-Al-Al-34-d-4.60,BondOrder-VacuumGB,BondOrder-VacuumGB/CSL7/Al/Al-34-d-4.60,/mnt/e/Onedrive/TiGB-Project/Data/BondOrder-VacuumGB/CSL7/Al/Al-34-d-4.60,CONTCAR,52,Ti51 Al1,1485.2379288157726,2.759517531621646,-388.33350268,-7.467951974615384,"{""ALGO"": ""Fast"", ""AMIX"": 0.01, ""BMIX"": 0.0001, ""EDIFF"": 1e-05, ""EDIFFG"": -0.01, ""ENCUT"": 450.0, ""GGA"": ""Pe"", ""IBRION"": 2, ""ISIF"": 2, ""ISMEAR"": 1, ""ISPIN"": 1, ""ISTART"": 0, ""KPAR"": 1, ""LAECHG"": true, ""LCHARG"": true, ""LORBIT"": 10, ""LPLANE"": false, ""LREAL"": ""Auto"", ""NCORE"": 4, ""NELM"": 300, ""NSIM"": 1, ""NSW"": 2, ""PREC"": ""Accurate"", ""SIGMA"": 0.2, ""SYSTEM"": ""Al-34-d-4.60""}",Al-34-d-4.60,450.0,1,1,0.2,Pe,"{""Ti"": 4.0, ""Al"": 3.0}",207.0,,Al
BondOrder-VacuumGB-CSL7-Al-Al-35-d-4.99,BondOrder-VacuumGB,BondOrder-VacuumGB/CSL7/Al/Al-35-d-4.99,/mnt/e/Onedrive/TiGB-Project/Data/BondOrder-VacuumGB/CSL7/Al/Al-35-d-4.99,CONTCAR,52,Ti51 Al1,1485.2379288157726,2.759517531621646,-388.36980279,-7.468650053653846,"{""ALGO"": ""Fast"", ""AMIX"": 0.01, ""BMIX"": 0.0001, ""EDIFF"": 1e-05, ""EDIFFG"": -0.01, ""ENCUT"": 450.0, ""GGA"": ""Pe"", ""IBRION"": 2, ""ISIF"": 2, ""ISMEAR"": 1, ""ISPIN"": 1, ""ISTART"": 0, ""KPAR"": 1, ""LAECHG"": true, ""LCHARG"": true, ""LORBIT"": 10, ""LPLANE"": false, ""LREAL"": ""Auto"", ""NCORE"": 4, ""NELM"": 300, ""NSIM"": 1, ""NSW"": 2, ""PREC"": ""Accurate"", ""SIGMA"": 0.2, ""SYSTEM"": ""Al-35-d-4.99""}",Al-35-d-4.99,450.0,1,1,0.2,Pe,"{""Ti"": 4.0, ""Al"": 3.0}",207.0,,Al
BondOrder-VacuumGB-CSL7-Al-Al-36-d-5.61,BondOrder-VacuumGB,BondOrder-VacuumGB/CSL7/Al/Al-36-d-5.61,/mnt/e/Onedrive/TiGB-Project/Data/BondOrder-VacuumGB/CSL7/Al/Al-36-d-5.61,CONTCAR,52,Ti51 Al1,1485.2379288157726,2.759517531621646,-388.40060712,-7.469242444615385,"{""ALGO"": ""Fast"", ""AMIX"": 0.01, ""BMIX"": 0.0001, ""EDIFF"": 1e-05, ""EDIFFG"": -0.01, ""ENCUT"": 450.0, ""GGA"": ""Pe"", ""IBRION"": 2, ""ISIF"": 2, ""ISMEAR"": 1, ""ISPIN"": 1, ""ISTART"": 0, ""KPAR"": 1, ""LAECHG"": true, ""LCHARG"": true, ""LORBIT"": 10, ""LPLANE"": false, ""LREAL"": ""Auto"", ""NCORE"": 4, ""NELM"": 300, ""NSIM"": 1, ""NSW"": 2, ""PREC"": ""Accurate"", ""SIGMA"": 0.2, ""SYSTEM"": ""Al-36-d-5.61""}",Al-36-d-5.61,450.0,1,1,0.2,Pe,"{""Ti"": 4.0, ""Al"": 3.0}",207.0,,Al
BondOrder-VacuumGB-CSL7-Al-Al-37-d-5.94,BondOrder-VacuumGB,BondOrder-VacuumGB/CSL7/Al/Al-37-d-5.94,/mnt/e/Onedrive/TiGB-Project/Data/BondOrder-VacuumGB/CSL7/Al/Al-37-d-5.94,CONTCAR,52,Ti51 Al1,1485.2379288157726,2.759517531621646,-388.27300581,-7.4667885732692305,"{""ALGO"": ""Fast"", ""AMIX"": 0.01, ""BMIX"": 0.0001, ""EDIFF"": 1e-05, ""EDIFFG"": -0.01, ""ENCUT"": 450.0, ""GGA"": ""Pe"", ""IBRION"": 2, ""ISIF"": 2, ""ISMEAR"": 1, ""ISPIN"": 1, ""ISTART"": 0, ""KPAR"": 1, ""LAECHG"": true, ""LCHARG"": true, ""LORBIT"": 10, ""LPLANE"": false, ""LREAL"": ""Auto"", ""NCORE"": 4, ""NELM"": 300, ""NSIM"": 1, ""NSW"": 2, ""PREC"": ""Accurate"", ""SIGMA"": 0.2, ""SYSTEM"": ""Al-37-d-5.94""}",Al-37-d-5.94,450.0,1,1,0.2,Pe,"{""Ti"": 4.0, ""Al"": 3.0}",207.0,,Al
BondOrder-VacuumGB-CSL7-Al-Al-38-d-6.58,BondOrder-VacuumGB,BondOrder-VacuumGB/CSL7/Al/Al-38-d-6.58,/mnt/e/Onedrive/TiGB-Project/Data/BondOrder-VacuumGB/CSL7/Al/Al-38-d-6.58,CONTCAR,52,Ti51 Al1,1485.2379288157726,2.759517531621646,-388.23985287,-7.466151016730769,"{""ALGO"": ""Fast"", ""AMIX"": 0.01, ""BMIX"": 0.0001, ""EDIFF"": 1e-05, ""EDIFFG"": -0.01, ""ENCUT"": 450.0, ""GGA"": ""Pe"", ""IBRION"": 2, ""ISIF"": 2, ""ISMEAR"": 1, ""ISPIN"": 1, ""ISTART"": 0, ""KPAR"": 1, ""LAECHG"": true, ""LCHARG"": true, ""LORBIT"": 10, ""LPLANE"": false, ""LREAL"": ""Auto"", ""NCORE"": 4, ""NELM"": 300, ""NSIM"": 1, ""NSW"": 2, ""PREC"": ""Accurate"", ""SIGMA"": 0.2, ""SYSTEM"": ""Al-38-d-6.58""}",Al-38-d-6.58,450.0,1,1,0.2,Pe,"{""Ti"": 4.0, ""Al"": 3.0}",207.0,,Al
BondOrder-VacuumGB-CSL7-Al-Al-39-d-6.91,BondOrder-VacuumGB,BondOrder-VacuumGB/CSL7/Al/Al-39-d-6.91,/mnt/e/Onedrive/TiGB-Project/Data/BondOrder-VacuumGB/CSL7/Al/Al-39-d-6.91,CONTCAR,52,Ti51 Al1,1485.2379288157726,2.759517531621646,-387.07958713,-7.443838214038461,"{""ALGO"": ""Fast"", ""AMIX"": 0.01, ""BMIX"": 0.0001, ""EDIFF"": 1e-05, ""EDIFFG"": -0.01, ""ENCUT"": 450.0, ""GGA"": ""Pe"", ""IBRION"": 2, ""ISIF"": 2, ""ISMEAR"": 1, ""ISPIN"": 1, ""ISTART"": 0, ""KPAR"": 1, ""LAECHG"": true, ""LCHARG"": true, ""LORBIT"": 10, ""LPLANE"": false, ""LREAL"": ""Auto"", ""NCORE"": 4, ""NELM"": 300, ""NSIM"": 1, ""NSW"": 2, ""PREC"": ""Accurate"", ""SIGMA"": 0.2, ""SYSTEM"": ""Al-39-d-6.91""}",Al-39-d-6.91,450.0,1,1,0.2,Pe,"{""Ti"": 4.0, ""Al"": 3.0}",207.0,,Al
BondOrder-VacuumGB-CSL7-V-V-24-d-0.00,BondOrder-VacuumGB,BondOrder-VacuumGB/CSL7/V/V-24-d-0.00,/mnt/e/Onedrive/TiGB-Project/Data/BondOrder-VacuumGB/CSL7/V/V-24-d-0.00,CONTCAR,52,Ti51 V1,1485.2379288157726,2.786305463186414,-390.75378858,-7.514495934230769,"{""ALGO"": ""Fast"", ""AMIX"": 0.01, ""BMIX"": 0.0001, ""EDIFF"": 1e-05, ""EDIFFG"": -0.01, ""ENCUT"": 450.0, ""GGA"": ""Pe"", ""IBRION"": 2, ""ISIF"": 2, ""ISMEAR"": 1, ""ISPIN"": 1, ""ISTART"": 0, ""KPAR"": 1, ""LAECHG"": true, ""LCHARG"": true, ""LORBIT"": 10, ""LPLANE"": false, ""LREAL"": ""Auto"", ""NCORE"": 4, ""NELM"": 300, ""NSIM"": 1, ""NSW"": 2, ""PREC"": ""Accurate"", ""SIGMA"": 0.2, ""SYSTEM"": ""V-24-d-0.00""}",V-24-d-0.00,450.0,1,1,0.2,Pe,"{""Ti"": 4.0, ""V"": 5.0}",209.0,,V
BondOrder-VacuumGB-CSL7-V-V-25-d-0.00,BondOrder-VacuumGB,BondOrder-VacuumGB/CSL7/V/V-25-d-0.00,/mnt/e/Onedrive/TiGB-Project/Data/BondOrder-VacuumGB/CSL7/V/V-25-d-0.00,CONTCAR,52,Ti51 V1,1485.2379288157726,2.786305463186414,-392.47563965,-7.547608454807692,"{""ALGO"": ""Fast"", ""AMIX"": 0.01, ""BMIX"": 0.0001, ""EDIFF"": 1e-05, ""EDIFFG"": -0.01, ""ENCUT"": 450.0, ""GGA"": ""Pe"", ""IBRION"": 2, ""ISIF"": 2, ""ISMEAR"": 1, ""ISPIN"": 1, ""ISTART"": 0, ""KPAR"": 1, ""LAECHG"": true, ""LCHARG"": true, ""LORBIT"": 10, ""LPLANE"": false, ""LREAL"": ""Auto"", ""NCORE"": 4, ""NELM"": 300, ""NSIM"": 1, ""NSW"": 2, ""PREC"": ""Accurate"", ""SIGMA"": 0.2, ""SYSTEM"": ""V-25-d-0.00""}",V-25-d-0.00,450.0,1,1,0.2,Pe,"{""Ti"": 4.0, ""V"": 5.0}",209.0,,V