job_name,top_level,relpath,path,structure_file,num_atoms,formula,volume,density,energy_eV,energy_per_atom_eV,incar,incar_system,incar_encut,incar_ispin,incar_ismear,incar_sigma,incar_gga,potcar_nelectrons_map,potcar_total_nelectrons,parse_errors,solute
Segregation-1sol-addvac-CSL7-Al-Al-25-d-0.00,Segregation-1sol-addvac,Segregation-1sol-addvac/CSL7/Al/Al-25-d-0.00,/mnt/e/Onedrive/TiGB-Project/Data/Segregation-1sol-addvac/CSL7/Al/Al-25-d-0.00,CONTCAR,52,Ti51 Al1,1485.2379288157726,2.759517531621646,-389.9340018,-7.498730803846153,"{""ALGO"": ""Fast"", ""AMIX"": 0.01, ""BMIX"": 0.0001, ""EDIFF"": 0.0001, ""EDIFFG"": -0.02, ""ENCUT"": 450.0, ""GGA"": ""Pe"", ""IBRION"": 2, ""ISIF"": 2, ""ISMEAR"": 1, ""ISPIN"": 1, ""ISTART"": 0, ""KPAR"": 4, ""LORBIT"": 10, ""LPLANE"": false, ""LREAL"": ""Auto"", ""NCORE"": 4, ""NELM"": 120, ""NSIM"": 1, ""NSW"": 60, ""PREC"": ""Accurate"", ""SIGMA"": 0.2, ""SYSTEM"": ""Al-25-d-0.00""}",Al-25-d-0.00,450.0,1,1,0.2,Pe,"{""Ti"": 4.0, ""Al"": 3.0}",207.0,,Al
Segregation-1sol-addvac-CSL7-Al-Al-26-d-0.72,Segregation-1sol-addvac,Segregation-1sol-addvac/CSL7/Al/Al-26-d-0.72,/mnt/e/Onedrive/TiGB-Project/Data/Segregation-1sol-addvac/CSL7/Al/Al-26-d-0.72,CONTCAR,52,Ti51 Al1,1485.2379288157726,2.759517531621646,-389.6432037,-7.493138532692308,"{""ALGO"": ""Fast"", ""AMIX"": 0.01, ""BMIX"": 0.0001, ""EDIFF"": 0.0001, ""EDIFFG"": -0.02, ""ENCUT"": 450.0, ""GGA"": ""Pe"", ""IBRION"": 2, ""ISIF"": 2, ""ISMEAR"": 1, ""ISPIN"": 1, ""ISTART"": 0, ""KPAR"": 4, ""LORBIT"": 10, ""LPLANE"": false, ""LREAL"": ""Auto"", ""NCORE"": 4, ""NELM"": 120, ""NSIM"": 1, ""NSW"": 60, ""PREC"": ""Accurate"", ""SIGMA"": 0.2, ""SYSTEM"": ""Al-26-d-0.72""}",Al-26-d-0.72,450.0,1,1,0.2,Pe,"{""Ti"": 4.0, ""Al"": 3.0}",207.0,,Al
Segregation-1sol-addvac-CSL7-Al-Al-27-d-1.36,Segregation-1sol-addvac,Segregation-1sol-addvac/CSL7/Al/Al-27-d-1.36,/mnt/e/Onedrive/TiGB-Project/Data/Segregation-1sol-addvac/CSL7/Al/Al-27-d-1.36,CONTCAR,52,Ti51 Al1,1485.2379288157726,2.759517531621646,-389.29797009,-7.4864994248076915,"{""ALGO"": ""Fast"", ""AMIX"": 0.01, ""BMIX"": 0.0001, ""EDIFF"": 0.0001, ""EDIFFG"": -0.02, ""ENCUT"": 450.0, ""GGA"": ""Pe"", ""IBRION"": 2, ""ISIF"": 2, ""ISMEAR"": 1, ""ISPIN"": 1, ""ISTART"": 0, ""KPAR"": 4, ""LORBIT"": 10, ""LPLANE"": false, ""LREAL"": ""Auto"", ""NCORE"": 4, ""NELM"": 120, ""NSIM"": 1, ""NSW"": 60, ""PREC"": ""Accurate"", ""SIGMA"": 0.2, ""SYSTEM"": ""Al-27-d-1.36""}",Al-27-d-1.36,450.0,1,1,0.2,Pe,"{""Ti"": 4.0, ""Al"": 3.0}",207.0,,Al
Segregation-1sol-addvac-CSL7-Al-Al-28-d-1.62,Segregation-1sol-addvac,Segregation-1sol-addvac/CSL7/Al/Al-28-d-1.62,/mnt/e/Onedrive/TiGB-Project/Data/Segregation-1sol-addvac/CSL7/Al/Al-28-d-1.62,CONTCAR,52,Ti51 Al1,1485.2379288157726,2.759517531621646,-390.07226846,-7.5013897780769225,"{""ALGO"": ""Fast"", ""AMIX"": 0.01, ""BMIX"": 0.0001, ""EDIFF"": 0.0001, ""EDIFFG"": -0.02, ""ENCUT"": 450.0, ""GGA"": ""Pe"", ""IBRION"": 2, ""ISIF"": 2, ""ISMEAR"": 1, ""ISPIN"": 1, ""ISTART"": 0, ""KPAR"": 4, ""LORBIT"": 10, ""LPLANE"": false, ""LREAL"": ""Auto"", ""NCORE"": 4, ""NELM"": 120, ""NSIM"": 1, ""NSW"": 60, ""PREC"": ""Accurate"", ""SIGMA"": 0.2, ""SYSTEM"": ""Al-28-d-1.62""}",Al-28-d-1.62,450.0,1,1,0.2,Pe,"{""Ti"": 4.0, ""Al"": 3.0}",207.0,,Al
Segregation-1sol-addvac-CSL7-Al-Al-29-d-2.09,Segregation-1sol-addvac,Segregation-1sol-addvac/CSL7/Al/Al-29-d-2.09,/mnt/e/Onedrive/TiGB-Project/Data/Segregation-1sol-addvac/CSL7/Al/Al-29-d-2.09,CONTCAR,52,Ti51 Al1,1485.2379288157726,2.759517531621646,-389.93239147,-7.498699835961539,"{""ALGO"": ""Fast"", ""AMIX"": 0.01, ""BMIX"": 0.0001, ""EDIFF"": 0.0001, ""EDIFFG"": -0.02, ""ENCUT"": 450.0, ""GGA"": ""Pe"", ""IBRION"": 2, ""ISIF"": 2, ""ISMEAR"": 1, ""ISPIN"": 1, ""ISTART"": 0, ""KPAR"": 4, ""LORBIT"": 10, ""LPLANE"": false, ""LREAL"": ""Auto"", ""NCORE"": 4, ""NELM"": 120, ""NSIM"": 1, ""NSW"": 60, ""PREC"": ""Accurate"", ""SIGMA"": 0.2, ""SYSTEM"": ""Al-29-d-2.09""}",Al-29-d-2.09,450.0,1,1,0.2,Pe,"{""Ti"": 4.0, ""Al"": 3.0}",207.0,,Al
Segregation-1sol-addvac-CSL7-Al-Al-30-d-2.82,Segregation-1sol-addvac,Segregation-1sol-addvac/CSL7/Al/Al-30-d-2.82,/mnt/e/Onedrive/TiGB-Project/Data/Segregation-1sol-addvac/CSL7/Al/Al-30-d-2.82,CONTCAR,52,Ti51 Al1,1485.2379288157726,2.759517531621646,-389.44887131,-7.489401371346154,"{""ALGO"": ""Fast"", ""AMIX"": 0.01, ""BMIX"": 0.0001, ""EDIFF"": 0.0001, ""EDIFFG"": -0.02, ""ENCUT"": 450.0, ""GGA"": ""Pe"", ""IBRION"": 2, ""ISIF"": 2, ""ISMEAR"": 1, ""ISPIN"": 1, ""ISTART"": 0, ""KPAR"": 4, ""LORBIT"": 10, ""LPLANE"": false, ""LREAL"": ""Auto"", ""NCORE"": 4, ""NELM"": 120, ""NSIM"": 1, ""NSW"": 60, ""PREC"": ""Accurate"", ""SIGMA"": 0.2, ""SYSTEM"": ""Al-30-d-2.82""}",Al-30-d-2.82,450.0,1,1,0.2,Pe,"{""Ti"": 4.0, ""Al"": 3.0}",207.0,,Al
Segregation-1sol-addvac-CSL7-Al-Al-31-d-3.01,Segregation-1sol-addvac,Segregation-1sol-addvac/CSL7/Al/Al-31-d-3.01,/mnt/e/Onedrive/TiGB-Project/Data/Segregation-1sol-addvac/CSL7/Al/Al-31-d-3.01,CONTCAR,52,Ti51 Al1,1485.2379288157726,2.759517531621646,-390.06613483,-7.5012718236538465,"{""ALGO"": ""Fast"", ""AMIX"": 0.01, ""BMIX"": 0.0001, ""EDIFF"": 0.0001, ""EDIFFG"": -0.02, ""ENCUT"": 450.0, ""GGA"": ""Pe"", ""IBRION"": 2, ""ISIF"": 2, ""ISMEAR"": 1, ""ISPIN"": 1, ""ISTART"": 0, ""KPAR"": 4, ""LORBIT"": 10, ""LPLANE"": false, ""LREAL"": ""Auto"", ""NCORE"": 4, ""NELM"": 120, ""NSIM"": 1, ""NSW"": 60, ""PREC"": ""Accurate"", ""SIGMA"": 0.2, ""SYSTEM"": ""Al-31-d-3.01""}",Al-31-d-3.01,450.0,1,1,0.2,Pe,"{""Ti"": 4.0, ""Al"": 3.0}",207.0,,Al
Segregation-1sol-addvac-CSL7-Al-Al-33-d-4.09,Segregation-1sol-addvac,Segregation-1sol-addvac/CSL7/Al/Al-33-d-4.09,/mnt/e/Onedrive/TiGB-Project/Data/Segregation-1sol-addvac/CSL7/Al/Al-33-d-4.09,CONTCAR,52,Ti51 Al1,1485.2379288157726,2.759517531621646,-390.21376039,-7.504110776730769,"{""ALGO"": ""Fast"", ""AMIX"": 0.01, ""BMIX"": 0.0001, ""EDIFF"": 0.0001, ""EDIFFG"": -0.02, ""ENCUT"": 450.0, ""GGA"": ""Pe"", ""IBRION"": 2, ""ISIF"": 2, ""ISMEAR"": 1, ""ISPIN"": 1, ""ISTART"": 0, ""KPAR"": 4, ""LORBIT"": 10, ""LPLANE"": false, ""LREAL"": ""Auto"", ""NCORE"": 4, ""NELM"": 120, ""NSIM"": 1, ""NSW"": 60, ""PREC"": ""Accurate"", ""SIGMA"": 0.2, ""SYSTEM"": ""Al-33-d-4.09""}",Al-33-d-4.09,450.0,1,1,0.2,Pe,"{""Ti"": 4.0, ""Al"": 3.0}",207.0,,Al
Segregation-1sol-addvac-CSL7-Al-Al-38-d-6.58,Segregation-1sol-addvac,Segregation-1sol-addvac/CSL7/Al/Al-38-d-6.58,/mnt/e/Onedrive/TiGB-Project/Data/Segregation-1sol-addvac/CSL7/Al/Al-38-d-6.58,CONTCAR,52,Ti51 Al1,1485.2379288157726,2.759517531621646,-390.025457,-7.500489557692308,"{""ALGO"": ""Fast"", ""AMIX"": 0.01, ""BMIX"": 0.0001, ""EDIFF"": 0.0001, ""EDIFFG"": -0.02, ""ENCUT"": 450.0, ""GGA"": ""Pe"", ""IBRION"": 2, ""ISIF"": 2, ""ISMEAR"": 1, ""ISPIN"": 1, ""ISTART"": 0, ""KPAR"": 4, ""LORBIT"": 10, ""LPLANE"": false, ""LREAL"": ""Auto"", ""NCORE"": 4, ""NELM"": 120, ""NSIM"": 1, ""NSW"": 60, ""PREC"": ""Accurate"", ""SIGMA"": 0.2, ""SYSTEM"": ""Al-38-d-6.58""}",Al-38-d-6.58,450.0,1,1,0.2,Pe,"{""Ti"": 4.0, ""Al"": 3.0}",207.0,,Al
Segregation-1sol-addvac-CSL7-V-V-24-d-0.00,Segregation-1sol-addvac,Segregation-1sol-addvac/CSL7/V/V-24-d-0.00,/mnt/e/Onedrive/TiGB-Project/Data/Segregation-1sol-addvac/CSL7/V/V-24-d-0.00,CONTCAR,52,Ti51 V1,1485.2379288157726,2.786305463186414,-393.21675661,-7.5618607040384616,"{""ALGO"": ""Fast"", ""AMIX"": 0.01, ""BMIX"": 0.0001, ""EDIFF"": 0.0001, ""EDIFFG"": -0.02, ""ENCUT"": 450.0, ""GGA"": ""Pe"", ""IBRION"": 2, ""ISIF"": 2, ""ISMEAR"": 1, ""ISPIN"": 1, ""ISTART"": 0, ""KPAR"": 4, ""LORBIT"": 10, ""LPLANE"": false, ""LREAL"": ""Auto"", ""NCORE"": 4, ""NELM"": 120, ""NSIM"": 1, ""NSW"": 60, ""PREC"": ""Accurate"", ""SIGMA"": 0.2, ""SYSTEM"": ""V-24-d-0.00""}",V-24-d-0.00,450.0,1,1,0.2,Pe,"{""Ti"": 4.0, ""V"": 5.0}",209.0,,V
Segregation-1sol-addvac-CSL7-V-V-25-d-0.00,Segregation-1sol-addvac,Segregation-1sol-addvac/CSL7/V/V-25-d-0.00,/mnt/e/Onedrive/TiGB-Project/Data/Segregation-1sol-addvac/CSL7/V/V-25-d-0.00,CONTCAR,52,Ti51 V1,1485.2379288157726,2.786305463186414,-394.32124357,-7.583100837884615,"{""ALGO"": ""Fast"", ""AMIX"": 0.01, ""BMIX"": 0.0001, ""EDIFF"": 0.0001, ""EDIFFG"": -0.02, ""ENCUT"": 450.0, ""GGA"": ""Pe"", ""IBRION"": 2, ""ISIF"": 2, ""ISMEAR"": 1, ""ISPIN"": 1, ""ISTART"": 0, ""KPAR"": 4, ""LORBIT"": 10, ""LPLANE"": false, ""LREAL"": ""Auto"", ""NCORE"": 4, ""NELM"": 120, ""NSIM"": 1, ""NSW"": 60, ""PREC"": ""Accurate"", ""SIGMA"": 0.2, ""SYSTEM"": ""V-25-d-0.00""}",V-25-d-0.00,450.0,1,1,0.2,Pe,"{""Ti"": 4.0, ""V"": 5.0}",209.0,,V
Segregation-1sol-addvac-CSL7-V-V-26-d-0.72,Segregation-1sol-addvac,Segregation-1sol-addvac/CSL7/V/V-26-d-0.72,/mnt/e/Onedrive/TiGB-Project/Data/Segregation-1sol-addvac/CSL7/V/V-26-d-0.72,CONTCAR,52,Ti51 V1,1485.2379288157726,2.786305463186414,-393.73580258,-7.571842357307692,"{""ALGO"": ""Fast"", ""AMIX"": 0.01, ""BMIX"": 0.0001, ""EDIFF"": 0.0001, ""EDIFFG"": -0.02, ""ENCUT"": 450.0, ""GGA"": ""Pe"", ""IBRION"": 2, ""ISIF"": 2, ""ISMEAR"": 1, ""ISPIN"": 1, ""ISTART"": 0, ""KPAR"": 4, ""LORBIT"": 10, ""LPLANE"": false, ""LREAL"": ""Auto"", ""NCORE"": 4, ""NELM"": 120, ""NSIM"": 1, ""NSW"": 60, ""PREC"": ""Accurate"", ""SIGMA"": 0.2, ""SYSTEM"": ""V-26-d-0.72""}",V-26-d-0.72,450.0,1,1,0.2,Pe,"{""Ti"": 4.0, ""V"": 5.0}",209.0,,V
Segregation-1sol-addvac-CSL7-V-V-27-d-1.36,Segregation-1sol-addvac,Segregation-1sol-addvac/CSL7/V/V-27-d-1.36,/mnt/e/Onedrive/TiGB-Project/Data/Segregation-1sol-addvac/CSL7/V/V-27-d-1.36,CONTCAR,52,Ti51 V1,1485.2379288157726,2.786305463186414,-394.40795943,-7.584768450576923,"{""ALGO"": ""Fast"", ""AMIX"": 0.01, ""BMIX"": 0.0001, ""EDIFF"": 0.0001, ""EDIFFG"": -0.02, ""ENCUT"": 450.0, ""GGA"": ""Pe"", ""IBRION"": 2, ""ISIF"": 2, ""ISMEAR"": 1, ""ISPIN"": 1, ""ISTART"": 0, ""KPAR"": 4, ""LORBIT"": 10, ""LPLANE"": false, ""LREAL"": ""Auto"", ""NCORE"": 4, ""NELM"": 120, ""NSIM"": 1, ""NSW"": 60, ""PREC"": ""Accurate"", ""SIGMA"": 0.2, ""SYSTEM"": ""V-27-d-1.36""}",V-27-d-1.36,450.0,1,1,0.2,Pe,"{""Ti"": 4.0, ""V"": 5.0}",209.0,,V
Segregation-1sol-addvac-CSL7-V-V-28-d-1.62,Segregation-1sol-addvac,Segregation-1sol-addvac/CSL7/V/V-28-d-1.62,/mnt/e/Onedrive/TiGB-Project/Data/Segregation-1sol-addvac/CSL7/V/V-28-d-1.62,CONTCAR,52,Ti51 V1,1485.2379288157726,2.786305463186414,-393.22988375,-7.562113149038462,"{""ALGO"": ""Fast"", ""AMIX"": 0.01, ""BMIX"": 0.0001, ""EDIFF"": 0.0001, ""EDIFFG"": -0.02, ""ENCUT"": 450.0, ""GGA"": ""Pe"", ""IBRION"": 2, ""ISIF"": 2, ""ISMEAR"": 1, ""ISPIN"": 1, ""ISTART"": 0, ""KPAR"": 4, ""LORBIT"": 10, ""LPLANE"": false, ""LREAL"": ""Auto"", ""NCORE"": 4, ""NELM"": 120, ""NSIM"": 1, ""NSW"": 60, ""PREC"": ""Accurate"", ""SIGMA"": 0.2, ""SYSTEM"": ""V-28-d-1.62""}",V-28-d-1.62,450.0,1,1,0.2,Pe,"{""Ti"": 4.0, ""V"": 5.0}",209.0,"vasprun:no element found: line 5271, column 0",V
Segregation-1sol-addvac-CSL7-V-V-29-d-2.09,Segregation-1sol-addvac,Segregation-1sol-addvac/CSL7/V/V-29-d-2.09,/mnt/e/Onedrive/TiGB-Project/Data/Segregation-1sol-addvac/CSL7/V/V-29-d-2.09,CONTCAR,52,Ti51 V1,1485.2379288157726,2.786305463186414,-394.1720595,-7.580231913461538,"{""ALGO"": ""Fast"", ""AMIX"": 0.01, ""BMIX"": 0.0001, ""EDIFF"": 0.0001, ""EDIFFG"": -0.02, ""ENCUT"": 450.0, ""GGA"": ""Pe"", ""IBRION"": 2, ""ISIF"": 2, ""ISMEAR"": 1, ""ISPIN"": 1, ""ISTART"": 0, ""KPAR"": 4, ""LORBIT"": 10, ""LPLANE"": false, ""LREAL"": ""Auto"", ""NCORE"": 4, ""NELM"": 120, ""NSIM"": 1, ""NSW"": 60, ""PREC"": ""Accurate"", ""SIGMA"": 0.2, ""SYSTEM"": ""V-29-d-2.09""}",V-29-d-2.09,450.0,1,1,0.2,Pe,"{""Ti"": 4.0, ""V"": 5.0}",209.0,,V
Segregation-1sol-addvac-CSL7-V-V-30-d-2.82,Segregation-1sol-addvac,Segregation-1sol-addvac/CSL7/V/V-30-d-2.82,/mnt/e/Onedrive/TiGB-Project/Data/Segregation-1sol-addvac/CSL7/V/V-30-d-2.82,CONTCAR,52,Ti51 V1,1485.2379288157726,2.786305463186414,-394.20205664,-7.580808781538462,"{""ALGO"": ""Fast"", ""AMIX"": 0.01, ""BMIX"": 0.0001, ""EDIFF"": 0.0001, ""EDIFFG"": -0.02, ""ENCUT"": 450.0, ""GGA"": ""Pe"", ""IBRION"": 2, ""ISIF"": 2, ""ISMEAR"": 1, ""ISPIN"": 1, ""ISTART"": 0, ""KPAR"": 4, ""LORBIT"": 10, ""LPLANE"": false, ""LREAL"": ""Auto"", ""NCORE"": 4, ""NELM"": 120, ""NSIM"": 1, ""NSW"": 60, ""PREC"": ""Accurate"", ""SIGMA"": 0.2, ""SYSTEM"": ""V-30-d-2.82""}",V-30-d-2.82,450.0,1,1,0.2,Pe,"{""Ti"": 4.0, ""V"": 5.0}",209.0,,V
Segregation-1sol-addvac-CSL7-V-V-31-d-3.01,Segregation-1sol-addvac,Segregation-1sol-addvac/CSL7/V/V-31-d-3.01,/mnt/e/Onedrive/TiGB-Project/Data/Segregation-1sol-addvac/CSL7/V/V-31-d-3.01,CONTCAR,52,Ti51 V1,1485.2379288157726,2.786305463186414,-394.01957928,-7.577299601538462,"{""ALGO"": ""Fast"", ""AMIX"": 0.01, ""BMIX"": 0.0001, ""EDIFF"": 0.0001, ""EDIFFG"": -0.02, ""ENCUT"": 450.0, ""GGA"": ""Pe"", ""IBRION"": 2, ""ISIF"": 2, ""ISMEAR"": 1, ""ISPIN"": 1, ""ISTART"": 0, ""KPAR"": 4, ""LORBIT"": 10, ""LPLANE"": false, ""LREAL"": ""Auto"", ""NCORE"": 4, ""NELM"": 120, ""NSIM"": 1, ""NSW"": 60, ""PREC"": ""Accurate"", ""SIGMA"": 0.2, ""SYSTEM"": ""V-31-d-3.01""}",V-31-d-3.01,450.0,1,1,0.2,Pe,"{""Ti"": 4.0, ""V"": 5.0}",209.0,,V
Segregation-1sol-addvac-CSL7-V-V-38-d-6.58,Segregation-1sol-addvac,Segregation-1sol-addvac/CSL7/V/V-38-d-6.58,/mnt/e/Onedrive/TiGB-Project/Data/Segregation-1sol-addvac/CSL7/V/V-38-d-6.58,CONTCAR,52,Ti51 V1,1485.2379288157726,2.786305463186414,-393.97488464,-7.57644008923077,"{""ALGO"": ""Fast"", ""AMIX"": 0.01, ""BMIX"": 0.0001, ""EDIFF"": 0.0001, ""EDIFFG"": -0.02, ""ENCUT"": 450.0, ""GGA"": ""Pe"", ""IBRION"": 2, ""ISIF"": 2, ""ISMEAR"": 1, ""ISPIN"": 1, ""ISTART"": 0, ""KPAR"": 4, ""LORBIT"": 10, ""LPLANE"": false, ""LREAL"": ""Auto"", ""NCORE"": 4, ""NELM"": 120, ""NSIM"": 1, ""NSW"": 60, ""PREC"": ""Accurate"", ""SIGMA"": 0.2, ""SYSTEM"": ""V-38-d-6.58""}",V-38-d-6.58,450.0,1,1,0.2,Pe,"{""Ti"": 4.0, ""V"": 5.0}",209.0,,V
Segregation-1sol-addvac-CSL7-V-V-39-d-6.91,Segregation-1sol-addvac,Segregation-1sol-addvac/CSL7/V/V-39-d-6.91,/mnt/e/Onedrive/TiGB-Project/Data/Segregation-1sol-addvac/CSL7/V/V-39-d-6.91,CONTCAR,52,Ti51 V1,1485.2379288157726,2.786305463186414,-393.99593791,-7.576844959807692,"{""ALGO"": ""Fast"", ""AMIX"": 0.01, ""BMIX"": 0.0001, ""EDIFF"": 0.0001, ""EDIFFG"": -0.02, ""ENCUT"": 450.0, ""GGA"": ""Pe"", ""IBRION"": 2, ""ISIF"": 2, ""ISMEAR"": 1, ""ISPIN"": 1, ""ISTART"": 0, ""KPAR"": 4, ""LORBIT"": 10, ""LPLANE"": false, ""LREAL"": ""Auto"", ""NCORE"": 4, ""NELM"": 120, ""NSIM"": 1, ""NSW"": 60, ""PREC"": ""Accurate"", ""SIGMA"": 0.2, ""SYSTEM"": ""V-39-d-6.91""}",V-39-d-6.91,450.0,1,1,0.2,Pe,"{""Ti"": 4.0, ""V"": 5.0}",209.0,,V
Segregation-1sol-addvac-T1g-Al-Al-31-d-0.22,Segregation-1sol-addvac,Segregation-1sol-addvac/T1g/Al/Al-31-d-0.22,/mnt/e/Onedrive/TiGB-Project/Data/Segregation-1sol-addvac/T1g/Al/Al-31-d-0.22,CONTCAR,64,Ti63 Al1,1755.8344326646197,2.8774697047449447,-482.89409613,-7.54522025203125,"{""ALGO"": ""Fast"", ""AMIX"": 0.01, ""BMIX"": 0.0001, ""EDIFF"": 0.0001, ""EDIFFG"": -0.02, ""ENCUT"": 450.0, ""GGA"": ""Pe"", ""IBRION"": 2, ""ISIF"": 2, ""ISMEAR"": 1, ""ISPIN"": 1, ""ISTART"": 0, ""KPAR"": 4, ""LORBIT"": 10, ""LPLANE"": false, ""LREAL"": ""Auto"", ""NCORE"": 4, ""NELM"": 120, ""NSIM"": 1, ""NSW"": 60, ""PREC"": ""Accurate"", ""SIGMA"": 0.2, ""SYSTEM"": ""Al-31-d-0.22""}",Al-31-d-0.22,450.0,1,1,0.2,Pe,"{""Ti"": 4.0, ""Al"": 3.0}",255.0,,Al
Segregation-1sol-addvac-T1g-Al-Al-33-d-0.00,Segregation-1sol-addvac,Segregation-1sol-addvac/T1g/Al/Al-33-d-0.00,/mnt/e/Onedrive/TiGB-Project/Data/Segregation-1sol-addvac/T1g/Al/Al-33-d-0.00,CONTCAR,64,Ti63 Al1,1755.8344326646197,2.8774697047449447,-482.979082,-7.54654815625,"{""ALGO"": ""Fast"", ""AMIX"": 0.01, ""BMIX"": 0.0001, ""EDIFF"": 0.0001, ""EDIFFG"": -0.02, ""ENCUT"": 450.0, ""GGA"": ""Pe"", ""IBRION"": 2, ""ISIF"": 2, ""ISMEAR"": 1, ""ISPIN"": 1, ""ISTART"": 0, ""KPAR"": 4, ""LORBIT"": 10, ""LPLANE"": false, ""LREAL"": ""Auto"", ""NCORE"": 4, ""NELM"": 120, ""NSIM"": 1, ""NSW"": 60, ""PREC"": ""Accurate"", ""SIGMA"": 0.2, ""SYSTEM"": ""Al-33-d-0.00""}",Al-33-d-0.00,450.0,1,1,0.2,Pe,"{""Ti"": 4.0, ""Al"": 3.0}",255.0,,Al
Segregation-1sol-addvac-T1g-Al-Al-35-d-1.29,Segregation-1sol-addvac,Segregation-1sol-addvac/T1g/Al/Al-35-d-1.29,/mnt/e/Onedrive/TiGB-Project/Data/Segregation-1sol-addvac/T1g/Al/Al-35-d-1.29,CONTCAR,64,Ti63 Al1,1755.8344326646197,2.8774697047449447,-482.9369795,-7.5458903046875,"{""ALGO"": ""Fast"", ""AMIX"": 0.01, ""BMIX"": 0.0001, ""EDIFF"": 0.0001, ""EDIFFG"": -0.02, ""ENCUT"": 450.0, ""GGA"": ""Pe"", ""IBRION"": 2, ""ISIF"": 2, ""ISMEAR"": 1, ""ISPIN"": 1, ""ISTART"": 0, ""KPAR"": 4, ""LORBIT"": 10, ""LPLANE"": false, ""LREAL"": ""Auto"", ""NCORE"": 4, ""NELM"": 120, ""NSIM"": 1, ""NSW"": 60, ""PREC"": ""Accurate"", ""SIGMA"": 0.2, ""SYSTEM"": ""Al-35-d-1.29""}",Al-35-d-1.29,450.0,1,1,0.2,Pe,"{""Ti"": 4.0, ""Al"": 3.0}",255.0,,Al
Segregation-1sol-addvac-T1g-Al-Al-37-d-1.90,Segregation-1sol-addvac,Segregation-1sol-addvac/T1g/Al/Al-37-d-1.90,/mnt/e/Onedrive/TiGB-Project/Data/Segregation-1sol-addvac/T1g/Al/Al-37-d-1.90,CONTCAR,64,Ti63 Al1,1755.8344326646197,2.8774697047449447,-481.80223798,-7.5281599684375,"{""ALGO"": ""Fast"", ""AMIX"": 0.01, ""BMIX"": 0.0001, ""EDIFF"": 0.0001, ""EDIFFG"": -0.02, ""ENCUT"": 450.0, ""GGA"": ""Pe"", ""IBRION"": 2, ""ISIF"": 2, ""ISMEAR"": 1, ""ISPIN"": 1, ""ISTART"": 0, ""KPAR"": 4, ""LORBIT"": 10, ""LPLANE"": false, ""LREAL"": ""Auto"", ""NCORE"": 4, ""NELM"": 120, ""NSIM"": 1, ""NSW"": 60, ""PREC"": ""Accurate"", ""SIGMA"": 0.2, ""SYSTEM"": ""Al-37-d-1.90""}",Al-37-d-1.90,450.0,1,1,0.2,Pe,"{""Ti"": 4.0, ""Al"": 3.0}",255.0,,Al
Segregation-1sol-addvac-T1g-Al-Al-39-d-3.19,Segregation-1sol-addvac,Segregation-1sol-addvac/T1g/Al/Al-39-d-3.19,/mnt/e/Onedrive/TiGB-Project/Data/Segregation-1sol-addvac/T1g/Al/Al-39-d-3.19,CONTCAR,64,Ti63 Al1,1755.8344326646197,2.8774697047449447,-482.99642809,-7.54681918890625,"{""ALGO"": ""Fast"", ""AMIX"": 0.01, ""BMIX"": 0.0001, ""EDIFF"": 0.0001, ""EDIFFG"": -0.02, ""ENCUT"": 450.0, ""GGA"": ""Pe"", ""IBRION"": 2, ""ISIF"": 2, ""ISMEAR"": 1, ""ISPIN"": 1, ""ISTART"": 0, ""KPAR"": 4, ""LORBIT"": 10, ""LPLANE"": false, ""LREAL"": ""Auto"", ""NCORE"": 4, ""NELM"": 120, ""NSIM"": 1, ""NSW"": 60, ""PREC"": ""Accurate"", ""SIGMA"": 0.2, ""SYSTEM"": ""Al-39-d-3.19""}",Al-39-d-3.19,450.0,1,1,0.2,Pe,"{""Ti"": 4.0, ""Al"": 3.0}",255.0,,Al
Segregation-1sol-addvac-T1g-Al-Al-41-d-3.41,Segregation-1sol-addvac,Segregation-1sol-addvac/T1g/Al/Al-41-d-3.41,/mnt/e/Onedrive/TiGB-Project/Data/Segregation-1sol-addvac/T1g/Al/Al-41-d-3.41,CONTCAR,64,Ti63 Al1,1755.8344326646197,2.8774697047449447,-482.89526808,-7.54523856375,"{""ALGO"": ""Fast"", ""AMIX"": 0.01, ""BMIX"": 0.0001, ""EDIFF"": 0.0001, ""EDIFFG"": -0.02, ""ENCUT"": 450.0, ""GGA"": ""Pe"", ""IBRION"": 2, ""ISIF"": 2, ""ISMEAR"": 1, ""ISPIN"": 1, ""ISTART"": 0, ""KPAR"": 4, ""LORBIT"": 10, ""LPLANE"": false, ""LREAL"": ""Auto"", ""NCORE"": 4, ""NELM"": 120, ""NSIM"": 1, ""NSW"": 60, ""PREC"": ""Accurate"", ""SIGMA"": 0.2, ""SYSTEM"": ""Al-41-d-3.41""}",Al-41-d-3.41,450.0,1,1,0.2,Pe,"{""Ti"": 4.0, ""Al"": 3.0}",255.0,,Al
Segregation-1sol-addvac-T1g-Al-Al-43-d-4.72,Segregation-1sol-addvac,Segregation-1sol-addvac/T1g/Al/Al-43-d-4.72,/mnt/e/Onedrive/TiGB-Project/Data/Segregation-1sol-addvac/T1g/Al/Al-43-d-4.72,CONTCAR,64,Ti63 Al1,1755.8344326646197,2.8774697047449447,-482.96286806,-7.5462948134375,"{""ALGO"": ""Fast"", ""AMIX"": 0.01, ""BMIX"": 0.0001, ""EDIFF"": 0.0001, ""EDIFFG"": -0.02, ""ENCUT"": 450.0, ""GGA"": ""Pe"", ""IBRION"": 2, ""ISIF"": 2, ""ISMEAR"": 1, ""ISPIN"": 1, ""ISTART"": 0, ""KPAR"": 4, ""LORBIT"": 10, ""LPLANE"": false, ""LREAL"": ""Auto"", ""NCORE"": 4, ""NELM"": 120, ""NSIM"": 1, ""NSW"": 60, ""PREC"": ""Accurate"", ""SIGMA"": 0.2, ""SYSTEM"": ""Al-43-d-4.72""}",Al-43-d-4.72,450.0,1,1,0.2,Pe,"{""Ti"": 4.0, ""Al"": 3.0}",255.0,,Al