job_name,top_level,relpath,path,structure_file,num_atoms,formula,volume,density,energy_eV,energy_per_atom_eV,incar,incar_system,incar_encut,incar_ispin,incar_ismear,incar_sigma,incar_gga,potcar_nelectrons_map,potcar_total_nelectrons,parse_errors,solute
BondOrder-VacuumGB-CSL7-V-V-26-d-0.72,BondOrder-VacuumGB,BondOrder-VacuumGB/CSL7/V/V-26-d-0.72,/mnt/e/Onedrive/TiGB-Project/Data/BondOrder-VacuumGB/CSL7/V/V-26-d-0.72,CONTCAR,52,Ti51 V1,1485.2379288157726,2.786305463186414,-391.2803589,-7.524622286538461,"{""ALGO"": ""Fast"", ""AMIX"": 0.01, ""BMIX"": 0.0001, ""EDIFF"": 1e-05, ""EDIFFG"": -0.01, ""ENCUT"": 450.0, ""GGA"": ""Pe"", ""IBRION"": 2, ""ISIF"": 2, ""ISMEAR"": 1, ""ISPIN"": 1, ""ISTART"": 0, ""KPAR"": 1, ""LAECHG"": true, ""LCHARG"": true, ""LORBIT"": 10, ""LPLANE"": false, ""LREAL"": ""Auto"", ""NCORE"": 4, ""NELM"": 300, ""NSIM"": 1, ""NSW"": 2, ""PREC"": ""Accurate"", ""SIGMA"": 0.2, ""SYSTEM"": ""V-26-d-0.72""}",V-26-d-0.72,450.0,1,1,0.2,Pe,"{""Ti"": 4.0, ""V"": 5.0}",209.0,,V
BondOrder-VacuumGB-CSL7-V-V-27-d-1.36,BondOrder-VacuumGB,BondOrder-VacuumGB/CSL7/V/V-27-d-1.36,/mnt/e/Onedrive/TiGB-Project/Data/BondOrder-VacuumGB/CSL7/V/V-27-d-1.36,CONTCAR,52,Ti51 V1,1485.2379288157726,2.786305463186414,-392.53740948,-7.548796336153846,"{""ALGO"": ""Fast"", ""AMIX"": 0.01, ""BMIX"": 0.0001, ""EDIFF"": 1e-05, ""EDIFFG"": -0.01, ""ENCUT"": 450.0, ""GGA"": ""Pe"", ""IBRION"": 2, ""ISIF"": 2, ""ISMEAR"": 1, ""ISPIN"": 1, ""ISTART"": 0, ""KPAR"": 1, ""LAECHG"": true, ""LCHARG"": true, ""LORBIT"": 10, ""LPLANE"": false, ""LREAL"": ""Auto"", ""NCORE"": 4, ""NELM"": 300, ""NSIM"": 1, ""NSW"": 2, ""PREC"": ""Accurate"", ""SIGMA"": 0.2, ""SYSTEM"": ""V-27-d-1.36""}",V-27-d-1.36,450.0,1,1,0.2,Pe,"{""Ti"": 4.0, ""V"": 5.0}",209.0,,V
BondOrder-VacuumGB-CSL7-V-V-28-d-1.62,BondOrder-VacuumGB,BondOrder-VacuumGB/CSL7/V/V-28-d-1.62,/mnt/e/Onedrive/TiGB-Project/Data/BondOrder-VacuumGB/CSL7/V/V-28-d-1.62,CONTCAR,52,Ti51 V1,1485.2379288157726,2.786305463186414,-390.82438783,-7.515853612115384,"{""ALGO"": ""Fast"", ""AMIX"": 0.01, ""BMIX"": 0.0001, ""EDIFF"": 1e-05, ""EDIFFG"": -0.01, ""ENCUT"": 450.0, ""GGA"": ""Pe"", ""IBRION"": 2, ""ISIF"": 2, ""ISMEAR"": 1, ""ISPIN"": 1, ""ISTART"": 0, ""KPAR"": 1, ""LAECHG"": true, ""LCHARG"": true, ""LORBIT"": 10, ""LPLANE"": false, ""LREAL"": ""Auto"", ""NCORE"": 4, ""NELM"": 300, ""NSIM"": 1, ""NSW"": 2, ""PREC"": ""Accurate"", ""SIGMA"": 0.2, ""SYSTEM"": ""V-28-d-1.62""}",V-28-d-1.62,450.0,1,1,0.2,Pe,"{""Ti"": 4.0, ""V"": 5.0}",209.0,,V
BondOrder-VacuumGB-CSL7-V-V-29-d-2.09,BondOrder-VacuumGB,BondOrder-VacuumGB/CSL7/V/V-29-d-2.09,/mnt/e/Onedrive/TiGB-Project/Data/BondOrder-VacuumGB/CSL7/V/V-29-d-2.09,CONTCAR,52,Ti51 V1,1485.2379288157726,2.786305463186414,-392.30818302,-7.544388135,"{""ALGO"": ""Fast"", ""AMIX"": 0.01, ""BMIX"": 0.0001, ""EDIFF"": 1e-05, ""EDIFFG"": -0.01, ""ENCUT"": 450.0, ""GGA"": ""Pe"", ""IBRION"": 2, ""ISIF"": 2, ""ISMEAR"": 1, ""ISPIN"": 1, ""ISTART"": 0, ""KPAR"": 1, ""LAECHG"": true, ""LCHARG"": true, ""LORBIT"": 10, ""LPLANE"": false, ""LREAL"": ""Auto"", ""NCORE"": 4, ""NELM"": 300, ""NSIM"": 1, ""NSW"": 2, ""PREC"": ""Accurate"", ""SIGMA"": 0.2, ""SYSTEM"": ""V-29-d-2.09""}",V-29-d-2.09,450.0,1,1,0.2,Pe,"{""Ti"": 4.0, ""V"": 5.0}",209.0,,V
BondOrder-VacuumGB-CSL7-V-V-30-d-2.82,BondOrder-VacuumGB,BondOrder-VacuumGB/CSL7/V/V-30-d-2.82,/mnt/e/Onedrive/TiGB-Project/Data/BondOrder-VacuumGB/CSL7/V/V-30-d-2.82,CONTCAR,52,Ti51 V1,1485.2379288157726,2.786305463186414,-392.32880065,-7.544784627884615,"{""ALGO"": ""Fast"", ""AMIX"": 0.01, ""BMIX"": 0.0001, ""EDIFF"": 1e-05, ""EDIFFG"": -0.01, ""ENCUT"": 450.0, ""GGA"": ""Pe"", ""IBRION"": 2, ""ISIF"": 2, ""ISMEAR"": 1, ""ISPIN"": 1, ""ISTART"": 0, ""KPAR"": 1, ""LAECHG"": true, ""LCHARG"": true, ""LORBIT"": 10, ""LPLANE"": false, ""LREAL"": ""Auto"", ""NCORE"": 4, ""NELM"": 300, ""NSIM"": 1, ""NSW"": 2, ""PREC"": ""Accurate"", ""SIGMA"": 0.2, ""SYSTEM"": ""V-30-d-2.82""}",V-30-d-2.82,450.0,1,1,0.2,Pe,"{""Ti"": 4.0, ""V"": 5.0}",209.0,,V
BondOrder-VacuumGB-CSL7-V-V-31-d-3.01,BondOrder-VacuumGB,BondOrder-VacuumGB/CSL7/V/V-31-d-3.01,/mnt/e/Onedrive/TiGB-Project/Data/BondOrder-VacuumGB/CSL7/V/V-31-d-3.01,CONTCAR,52,Ti51 V1,1485.2379288157726,2.786305463186414,-392.14694783,-7.54128745826923,"{""ALGO"": ""Fast"", ""AMIX"": 0.01, ""BMIX"": 0.0001, ""EDIFF"": 1e-05, ""EDIFFG"": -0.01, ""ENCUT"": 450.0, ""GGA"": ""Pe"", ""IBRION"": 2, ""ISIF"": 2, ""ISMEAR"": 1, ""ISPIN"": 1, ""ISTART"": 0, ""KPAR"": 1, ""LAECHG"": true, ""LCHARG"": true, ""LORBIT"": 10, ""LPLANE"": false, ""LREAL"": ""Auto"", ""NCORE"": 4, ""NELM"": 300, ""NSIM"": 1, ""NSW"": 2, ""PREC"": ""Accurate"", ""SIGMA"": 0.2, ""SYSTEM"": ""V-31-d-3.01""}",V-31-d-3.01,450.0,1,1,0.2,Pe,"{""Ti"": 4.0, ""V"": 5.0}",209.0,,V
BondOrder-VacuumGB-CSL7-V-V-32-d-3.65,BondOrder-VacuumGB,BondOrder-VacuumGB/CSL7/V/V-32-d-3.65,/mnt/e/Onedrive/TiGB-Project/Data/BondOrder-VacuumGB/CSL7/V/V-32-d-3.65,CONTCAR,52,Ti51 V1,1485.2379288157726,2.786305463186414,-392.09985994,-7.5403819219230765,"{""ALGO"": ""Fast"", ""AMIX"": 0.01, ""BMIX"": 0.0001, ""EDIFF"": 1e-05, ""EDIFFG"": -0.01, ""ENCUT"": 450.0, ""GGA"": ""Pe"", ""IBRION"": 2, ""ISIF"": 2, ""ISMEAR"": 1, ""ISPIN"": 1, ""ISTART"": 0, ""KPAR"": 1, ""LAECHG"": true, ""LCHARG"": true, ""LORBIT"": 10, ""LPLANE"": false, ""LREAL"": ""Auto"", ""NCORE"": 4, ""NELM"": 300, ""NSIM"": 1, ""NSW"": 2, ""PREC"": ""Accurate"", ""SIGMA"": 0.2, ""SYSTEM"": ""V-32-d-3.65""}",V-32-d-3.65,450.0,1,1,0.2,Pe,"{""Ti"": 4.0, ""V"": 5.0}",209.0,,V
BondOrder-VacuumGB-CSL7-V-V-33-d-4.09,BondOrder-VacuumGB,BondOrder-VacuumGB/CSL7/V/V-33-d-4.09,/mnt/e/Onedrive/TiGB-Project/Data/BondOrder-VacuumGB/CSL7/V/V-33-d-4.09,CONTCAR,52,Ti51 V1,1485.2379288157726,2.786305463186414,-392.26444416,-7.543547003076923,"{""ALGO"": ""Fast"", ""AMIX"": 0.01, ""BMIX"": 0.0001, ""EDIFF"": 1e-05, ""EDIFFG"": -0.01, ""ENCUT"": 450.0, ""GGA"": ""Pe"", ""IBRION"": 2, ""ISIF"": 2, ""ISMEAR"": 1, ""ISPIN"": 1, ""ISTART"": 0, ""KPAR"": 1, ""LAECHG"": true, ""LCHARG"": true, ""LORBIT"": 10, ""LPLANE"": false, ""LREAL"": ""Auto"", ""NCORE"": 4, ""NELM"": 300, ""NSIM"": 1, ""NSW"": 2, ""PREC"": ""Accurate"", ""SIGMA"": 0.2, ""SYSTEM"": ""V-33-d-4.09""}",V-33-d-4.09,450.0,1,1,0.2,Pe,"{""Ti"": 4.0, ""V"": 5.0}",209.0,,V
BondOrder-VacuumGB-CSL7-V-V-34-d-4.60,BondOrder-VacuumGB,BondOrder-VacuumGB/CSL7/V/V-34-d-4.60,/mnt/e/Onedrive/TiGB-Project/Data/BondOrder-VacuumGB/CSL7/V/V-34-d-4.60,CONTCAR,52,Ti51 V1,1485.2379288157726,2.786305463186414,-392.11966587,-7.5407628051923075,"{""ALGO"": ""Fast"", ""AMIX"": 0.01, ""BMIX"": 0.0001, ""EDIFF"": 1e-05, ""EDIFFG"": -0.01, ""ENCUT"": 450.0, ""GGA"": ""Pe"", ""IBRION"": 2, ""ISIF"": 2, ""ISMEAR"": 1, ""ISPIN"": 1, ""ISTART"": 0, ""KPAR"": 1, ""LAECHG"": true, ""LCHARG"": true, ""LORBIT"": 10, ""LPLANE"": false, ""LREAL"": ""Auto"", ""NCORE"": 4, ""NELM"": 300, ""NSIM"": 1, ""NSW"": 2, ""PREC"": ""Accurate"", ""SIGMA"": 0.2, ""SYSTEM"": ""V-34-d-4.60""}",V-34-d-4.60,450.0,1,1,0.2,Pe,"{""Ti"": 4.0, ""V"": 5.0}",209.0,,V
BondOrder-VacuumGB-CSL7-V-V-35-d-4.99,BondOrder-VacuumGB,BondOrder-VacuumGB/CSL7/V/V-35-d-4.99,/mnt/e/Onedrive/TiGB-Project/Data/BondOrder-VacuumGB/CSL7/V/V-35-d-4.99,CONTCAR,52,Ti51 V1,1485.2379288157726,2.786305463186414,-392.14726112,-7.541293483076923,"{""ALGO"": ""Fast"", ""AMIX"": 0.01, ""BMIX"": 0.0001, ""EDIFF"": 1e-05, ""EDIFFG"": -0.01, ""ENCUT"": 450.0, ""GGA"": ""Pe"", ""IBRION"": 2, ""ISIF"": 2, ""ISMEAR"": 1, ""ISPIN"": 1, ""ISTART"": 0, ""KPAR"": 1, ""LAECHG"": true, ""LCHARG"": true, ""LORBIT"": 10, ""LPLANE"": false, ""LREAL"": ""Auto"", ""NCORE"": 4, ""NELM"": 300, ""NSIM"": 1, ""NSW"": 2, ""PREC"": ""Accurate"", ""SIGMA"": 0.2, ""SYSTEM"": ""V-35-d-4.99""}",V-35-d-4.99,450.0,1,1,0.2,Pe,"{""Ti"": 4.0, ""V"": 5.0}",209.0,,V
BondOrder-VacuumGB-CSL7-V-V-36-d-5.61,BondOrder-VacuumGB,BondOrder-VacuumGB/CSL7/V/V-36-d-5.61,/mnt/e/Onedrive/TiGB-Project/Data/BondOrder-VacuumGB/CSL7/V/V-36-d-5.61,CONTCAR,52,Ti51 V1,1485.2379288157726,2.786305463186414,-392.16426765,-7.54162053173077,"{""ALGO"": ""Fast"", ""AMIX"": 0.01, ""BMIX"": 0.0001, ""EDIFF"": 1e-05, ""EDIFFG"": -0.01, ""ENCUT"": 450.0, ""GGA"": ""Pe"", ""IBRION"": 2, ""ISIF"": 2, ""ISMEAR"": 1, ""ISPIN"": 1, ""ISTART"": 0, ""KPAR"": 1, ""LAECHG"": true, ""LCHARG"": true, ""LORBIT"": 10, ""LPLANE"": false, ""LREAL"": ""Auto"", ""NCORE"": 4, ""NELM"": 300, ""NSIM"": 1, ""NSW"": 2, ""PREC"": ""Accurate"", ""SIGMA"": 0.2, ""SYSTEM"": ""V-36-d-5.61""}",V-36-d-5.61,450.0,1,1,0.2,Pe,"{""Ti"": 4.0, ""V"": 5.0}",209.0,,V
BondOrder-VacuumGB-CSL7-V-V-37-d-5.94,BondOrder-VacuumGB,BondOrder-VacuumGB/CSL7/V/V-37-d-5.94,/mnt/e/Onedrive/TiGB-Project/Data/BondOrder-VacuumGB/CSL7/V/V-37-d-5.94,CONTCAR,52,Ti51 V1,1485.2379288157726,2.786305463186414,-392.10591227,-7.540498312884615,"{""ALGO"": ""Fast"", ""AMIX"": 0.01, ""BMIX"": 0.0001, ""EDIFF"": 1e-05, ""EDIFFG"": -0.01, ""ENCUT"": 450.0, ""GGA"": ""Pe"", ""IBRION"": 2, ""ISIF"": 2, ""ISMEAR"": 1, ""ISPIN"": 1, ""ISTART"": 0, ""KPAR"": 1, ""LAECHG"": true, ""LCHARG"": true, ""LORBIT"": 10, ""LPLANE"": false, ""LREAL"": ""Auto"", ""NCORE"": 4, ""NELM"": 300, ""NSIM"": 1, ""NSW"": 2, ""PREC"": ""Accurate"", ""SIGMA"": 0.2, ""SYSTEM"": ""V-37-d-5.94""}",V-37-d-5.94,450.0,1,1,0.2,Pe,"{""Ti"": 4.0, ""V"": 5.0}",209.0,,V
BondOrder-VacuumGB-CSL7-V-V-38-d-6.58,BondOrder-VacuumGB,BondOrder-VacuumGB/CSL7/V/V-38-d-6.58,/mnt/e/Onedrive/TiGB-Project/Data/BondOrder-VacuumGB/CSL7/V/V-38-d-6.58,CONTCAR,52,Ti51 V1,1485.2379288157726,2.786305463186414,-392.10298564,-7.540442031538461,"{""ALGO"": ""Fast"", ""AMIX"": 0.01, ""BMIX"": 0.0001, ""EDIFF"": 1e-05, ""EDIFFG"": -0.01, ""ENCUT"": 450.0, ""GGA"": ""Pe"", ""IBRION"": 2, ""ISIF"": 2, ""ISMEAR"": 1, ""ISPIN"": 1, ""ISTART"": 0, ""KPAR"": 1, ""LAECHG"": true, ""LCHARG"": true, ""LORBIT"": 10, ""LPLANE"": false, ""LREAL"": ""Auto"", ""NCORE"": 4, ""NELM"": 300, ""NSIM"": 1, ""NSW"": 2, ""PREC"": ""Accurate"", ""SIGMA"": 0.2, ""SYSTEM"": ""V-38-d-6.58""}",V-38-d-6.58,450.0,1,1,0.2,Pe,"{""Ti"": 4.0, ""V"": 5.0}",209.0,,V
BondOrder-VacuumGB-CSL7-V-V-39-d-6.91,BondOrder-VacuumGB,BondOrder-VacuumGB/CSL7/V/V-39-d-6.91,/mnt/e/Onedrive/TiGB-Project/Data/BondOrder-VacuumGB/CSL7/V/V-39-d-6.91,CONTCAR,52,Ti51 V1,1485.2379288157726,2.786305463186414,-392.21436907,-7.542584020576923,"{""ALGO"": ""Fast"", ""AMIX"": 0.01, ""BMIX"": 0.0001, ""EDIFF"": 1e-05, ""EDIFFG"": -0.01, ""ENCUT"": 450.0, ""GGA"": ""Pe"", ""IBRION"": 2, ""ISIF"": 2, ""ISMEAR"": 1, ""ISPIN"": 1, ""ISTART"": 0, ""KPAR"": 1, ""LAECHG"": true, ""LCHARG"": true, ""LORBIT"": 10, ""LPLANE"": false, ""LREAL"": ""Auto"", ""NCORE"": 4, ""NELM"": 300, ""NSIM"": 1, ""NSW"": 2, ""PREC"": ""Accurate"", ""SIGMA"": 0.2, ""SYSTEM"": ""V-39-d-6.91""}",V-39-d-6.91,450.0,1,1,0.2,Pe,"{""Ti"": 4.0, ""V"": 5.0}",209.0,,V
BondOrder-VacuumGB-T1g-Al-Al-30-d-0.22,BondOrder-VacuumGB,BondOrder-VacuumGB/T1g/Al/Al-30-d-0.22,/mnt/e/Onedrive/TiGB-Project/Data/BondOrder-VacuumGB/T1g/Al/Al-30-d-0.22,CONTCAR,64,Ti63 Al1,1755.8344326646197,2.8774697047449447,-482.03510224,-7.5317984725,"{""ALGO"": ""Fast"", ""AMIX"": 0.01, ""BMIX"": 0.0001, ""EDIFF"": 1e-05, ""EDIFFG"": -0.01, ""ENCUT"": 450.0, ""GGA"": ""Pe"", ""IBRION"": 2, ""ISIF"": 2, ""ISMEAR"": 1, ""ISPIN"": 1, ""ISTART"": 0, ""KPAR"": 1, ""LAECHG"": true, ""LCHARG"": true, ""LORBIT"": 10, ""LPLANE"": false, ""LREAL"": ""Auto"", ""NCORE"": 4, ""NELM"": 300, ""NSIM"": 1, ""NSW"": 2, ""PREC"": ""Accurate"", ""SIGMA"": 0.2, ""SYSTEM"": ""Al-30-d-0.22""}",Al-30-d-0.22,450.0,1,1,0.2,Pe,"{""Ti"": 4.0, ""Al"": 3.0}",255.0,,Al
BondOrder-VacuumGB-T1g-Al-Al-31-d-0.22,BondOrder-VacuumGB,BondOrder-VacuumGB/T1g/Al/Al-31-d-0.22,/mnt/e/Onedrive/TiGB-Project/Data/BondOrder-VacuumGB/T1g/Al/Al-31-d-0.22,CONTCAR,64,Ti63 Al1,1755.8344326646197,2.8774697047449447,-482.02833506,-7.5316927353125,"{""ALGO"": ""Fast"", ""AMIX"": 0.01, ""BMIX"": 0.0001, ""EDIFF"": 1e-05, ""EDIFFG"": -0.01, ""ENCUT"": 450.0, ""GGA"": ""Pe"", ""IBRION"": 2, ""ISIF"": 2, ""ISMEAR"": 1, ""ISPIN"": 1, ""ISTART"": 0, ""KPAR"": 1, ""LAECHG"": true, ""LCHARG"": true, ""LORBIT"": 10, ""LPLANE"": false, ""LREAL"": ""Auto"", ""NCORE"": 4, ""NELM"": 300, ""NSIM"": 1, ""NSW"": 2, ""PREC"": ""Accurate"", ""SIGMA"": 0.2, ""SYSTEM"": ""Al-31-d-0.22""}",Al-31-d-0.22,450.0,1,1,0.2,Pe,"{""Ti"": 4.0, ""Al"": 3.0}",255.0,,Al
BondOrder-VacuumGB-T1g-Al-Al-32-d-0.00,BondOrder-VacuumGB,BondOrder-VacuumGB/T1g/Al/Al-32-d-0.00,/mnt/e/Onedrive/TiGB-Project/Data/BondOrder-VacuumGB/T1g/Al/Al-32-d-0.00,CONTCAR,64,Ti63 Al1,1755.8344326646197,2.8774697047449447,-482.14684229,-7.53354441078125,"{""ALGO"": ""Fast"", ""AMIX"": 0.01, ""BMIX"": 0.0001, ""EDIFF"": 1e-05, ""EDIFFG"": -0.01, ""ENCUT"": 450.0, ""GGA"": ""Pe"", ""IBRION"": 2, ""ISIF"": 2, ""ISMEAR"": 1, ""ISPIN"": 1, ""ISTART"": 0, ""KPAR"": 1, ""LAECHG"": true, ""LCHARG"": true, ""LORBIT"": 10, ""LPLANE"": false, ""LREAL"": ""Auto"", ""NCORE"": 4, ""NELM"": 300, ""NSIM"": 1, ""NSW"": 2, ""PREC"": ""Accurate"", ""SIGMA"": 0.2, ""SYSTEM"": ""Al-32-d-0.00""}",Al-32-d-0.00,450.0,1,1,0.2,Pe,"{""Ti"": 4.0, ""Al"": 3.0}",255.0,,Al
BondOrder-VacuumGB-T1g-Al-Al-33-d-0.00,BondOrder-VacuumGB,BondOrder-VacuumGB/T1g/Al/Al-33-d-0.00,/mnt/e/Onedrive/TiGB-Project/Data/BondOrder-VacuumGB/T1g/Al/Al-33-d-0.00,CONTCAR,64,Ti63 Al1,1755.8344326646197,2.8774697047449447,-482.14316851,-7.53348700796875,"{""ALGO"": ""Fast"", ""AMIX"": 0.01, ""BMIX"": 0.0001, ""EDIFF"": 1e-05, ""EDIFFG"": -0.01, ""ENCUT"": 450.0, ""GGA"": ""Pe"", ""IBRION"": 2, ""ISIF"": 2, ""ISMEAR"": 1, ""ISPIN"": 1, ""ISTART"": 0, ""KPAR"": 1, ""LAECHG"": true, ""LCHARG"": true, ""LORBIT"": 10, ""LPLANE"": false, ""LREAL"": ""Auto"", ""NCORE"": 4, ""NELM"": 300, ""NSIM"": 1, ""NSW"": 2, ""PREC"": ""Accurate"", ""SIGMA"": 0.2, ""SYSTEM"": ""Al-33-d-0.00""}",Al-33-d-0.00,450.0,1,1,0.2,Pe,"{""Ti"": 4.0, ""Al"": 3.0}",255.0,,Al
BondOrder-VacuumGB-T1g-Al-Al-34-d-1.29,BondOrder-VacuumGB,BondOrder-VacuumGB/T1g/Al/Al-34-d-1.29,/mnt/e/Onedrive/TiGB-Project/Data/BondOrder-VacuumGB/T1g/Al/Al-34-d-1.29,CONTCAR,64,Ti63 Al1,1755.8344326646197,2.8774697047449447,-482.12467333,-7.53319802078125,"{""ALGO"": ""Fast"", ""AMIX"": 0.01, ""BMIX"": 0.0001, ""EDIFF"": 1e-05, ""EDIFFG"": -0.01, ""ENCUT"": 450.0, ""GGA"": ""Pe"", ""IBRION"": 2, ""ISIF"": 2, ""ISMEAR"": 1, ""ISPIN"": 1, ""ISTART"": 0, ""KPAR"": 1, ""LAECHG"": true, ""LCHARG"": true, ""LORBIT"": 10, ""LPLANE"": false, ""LREAL"": ""Auto"", ""NCORE"": 4, ""NELM"": 300, ""NSIM"": 1, ""NSW"": 2, ""PREC"": ""Accurate"", ""SIGMA"": 0.2, ""SYSTEM"": ""Al-34-d-1.29""}",Al-34-d-1.29,450.0,1,1,0.2,Pe,"{""Ti"": 4.0, ""Al"": 3.0}",255.0,,Al
BondOrder-VacuumGB-T1g-Al-Al-35-d-1.29,BondOrder-VacuumGB,BondOrder-VacuumGB/T1g/Al/Al-35-d-1.29,/mnt/e/Onedrive/TiGB-Project/Data/BondOrder-VacuumGB/T1g/Al/Al-35-d-1.29,CONTCAR,64,Ti63 Al1,1755.8344326646197,2.8774697047449447,-482.12247136,-7.533163615,"{""ALGO"": ""Fast"", ""AMIX"": 0.01, ""BMIX"": 0.0001, ""EDIFF"": 1e-05, ""EDIFFG"": -0.01, ""ENCUT"": 450.0, ""GGA"": ""Pe"", ""IBRION"": 2, ""ISIF"": 2, ""ISMEAR"": 1, ""ISPIN"": 1, ""ISTART"": 0, ""KPAR"": 1, ""LAECHG"": true, ""LCHARG"": true, ""LORBIT"": 10, ""LPLANE"": false, ""LREAL"": ""Auto"", ""NCORE"": 4, ""NELM"": 300, ""NSIM"": 1, ""NSW"": 2, ""PREC"": ""Accurate"", ""SIGMA"": 0.2, ""SYSTEM"": ""Al-35-d-1.29""}",Al-35-d-1.29,450.0,1,1,0.2,Pe,"{""Ti"": 4.0, ""Al"": 3.0}",255.0,,Al
BondOrder-VacuumGB-T1g-Al-Al-36-d-1.90,BondOrder-VacuumGB,BondOrder-VacuumGB/T1g/Al/Al-36-d-1.90,/mnt/e/Onedrive/TiGB-Project/Data/BondOrder-VacuumGB/T1g/Al/Al-36-d-1.90,CONTCAR,64,Ti63 Al1,1755.8344326646197,2.8774697047449447,-482.11863924,-7.533103738125,"{""ALGO"": ""Fast"", ""AMIX"": 0.01, ""BMIX"": 0.0001, ""EDIFF"": 1e-05, ""EDIFFG"": -0.01, ""ENCUT"": 450.0, ""GGA"": ""Pe"", ""IBRION"": 2, ""ISIF"": 2, ""ISMEAR"": 1, ""ISPIN"": 1, ""ISTART"": 0, ""KPAR"": 1, ""LAECHG"": true, ""LCHARG"": true, ""LORBIT"": 10, ""LPLANE"": false, ""LREAL"": ""Auto"", ""NCORE"": 4, ""NELM"": 300, ""NSIM"": 1, ""NSW"": 2, ""PREC"": ""Accurate"", ""SIGMA"": 0.2, ""SYSTEM"": ""Al-36-d-1.90""}",Al-36-d-1.90,450.0,1,1,0.2,Pe,"{""Ti"": 4.0, ""Al"": 3.0}",255.0,,Al
BondOrder-VacuumGB-T1g-Al-Al-37-d-1.90,BondOrder-VacuumGB,BondOrder-VacuumGB/T1g/Al/Al-37-d-1.90,/mnt/e/Onedrive/TiGB-Project/Data/BondOrder-VacuumGB/T1g/Al/Al-37-d-1.90,CONTCAR,64,Ti63 Al1,1755.8344326646197,2.8774697047449447,-480.53029397,-7.50828584328125,"{""ALGO"": ""Fast"", ""AMIX"": 0.01, ""BMIX"": 0.0001, ""EDIFF"": 1e-05, ""EDIFFG"": -0.01, ""ENCUT"": 450.0, ""GGA"": ""Pe"", ""IBRION"": 2, ""ISIF"": 2, ""ISMEAR"": 1, ""ISPIN"": 1, ""ISTART"": 0, ""KPAR"": 1, ""LAECHG"": true, ""LCHARG"": true, ""LORBIT"": 10, ""LPLANE"": false, ""LREAL"": ""Auto"", ""NCORE"": 4, ""NELM"": 300, ""NSIM"": 1, ""NSW"": 2, ""PREC"": ""Accurate"", ""SIGMA"": 0.2, ""SYSTEM"": ""Al-37-d-1.90""}",Al-37-d-1.90,450.0,1,1,0.2,Pe,"{""Ti"": 4.0, ""Al"": 3.0}",255.0,,Al
BondOrder-VacuumGB-T1g-Al-Al-38-d-3.19,BondOrder-VacuumGB,BondOrder-VacuumGB/T1g/Al/Al-38-d-3.19,/mnt/e/Onedrive/TiGB-Project/Data/BondOrder-VacuumGB/T1g/Al/Al-38-d-3.19,CONTCAR,64,Ti63 Al1,1755.8344326646197,2.8774697047449447,-480.10887798,-7.5017012184375,"{""ALGO"": ""Fast"", ""AMIX"": 0.01, ""BMIX"": 0.0001, ""EDIFF"": 1e-05, ""EDIFFG"": -0.01, ""ENCUT"": 450.0, ""GGA"": ""Pe"", ""IBRION"": 2, ""ISIF"": 2, ""ISMEAR"": 1, ""ISPIN"": 1, ""ISTART"": 0, ""KPAR"": 1, ""LAECHG"": true, ""LCHARG"": true, ""LORBIT"": 10, ""LPLANE"": false, ""LREAL"": ""Auto"", ""NCORE"": 4, ""NELM"": 300, ""NSIM"": 1, ""NSW"": 2, ""PREC"": ""Accurate"", ""SIGMA"": 0.2, ""SYSTEM"": ""Al-38-d-3.19""}",Al-38-d-3.19,450.0,1,1,0.2,Pe,"{""Ti"": 4.0, ""Al"": 3.0}",255.0,,Al
BondOrder-VacuumGB-T1g-Al-Al-39-d-3.19,BondOrder-VacuumGB,BondOrder-VacuumGB/T1g/Al/Al-39-d-3.19,/mnt/e/Onedrive/TiGB-Project/Data/BondOrder-VacuumGB/T1g/Al/Al-39-d-3.19,CONTCAR,64,Ti63 Al1,1755.8344326646197,2.8774697047449447,-482.15607757,-7.53368871203125,"{""ALGO"": ""Fast"", ""AMIX"": 0.01, ""BMIX"": 0.0001, ""EDIFF"": 1e-05, ""EDIFFG"": -0.01, ""ENCUT"": 450.0, ""GGA"": ""Pe"", ""IBRION"": 2, ""ISIF"": 2, ""ISMEAR"": 1, ""ISPIN"": 1, ""ISTART"": 0, ""KPAR"": 1, ""LAECHG"": true, ""LCHARG"": true, ""LORBIT"": 10, ""LPLANE"": false, ""LREAL"": ""Auto"", ""NCORE"": 4, ""NELM"": 300, ""NSIM"": 1, ""NSW"": 2, ""PREC"": ""Accurate"", ""SIGMA"": 0.2, ""SYSTEM"": ""Al-39-d-3.19""}",Al-39-d-3.19,450.0,1,1,0.2,Pe,"{""Ti"": 4.0, ""Al"": 3.0}",255.0,,Al
BondOrder-VacuumGB-T1g-Al-Al-40-d-3.41,BondOrder-VacuumGB,BondOrder-VacuumGB/T1g/Al/Al-40-d-3.41,/mnt/e/Onedrive/TiGB-Project/Data/BondOrder-VacuumGB/T1g/Al/Al-40-d-3.41,CONTCAR,64,Ti63 Al1,1755.8344326646197,2.8774697047449447,-482.02889592,-7.53170149875,"{""ALGO"": ""Fast"", ""AMIX"": 0.01, ""BMIX"": 0.0001, ""EDIFF"": 1e-05, ""EDIFFG"": -0.01, ""ENCUT"": 450.0, ""GGA"": ""Pe"", ""IBRION"": 2, ""ISIF"": 2, ""ISMEAR"": 1, ""ISPIN"": 1, ""ISTART"": 0, ""KPAR"": 1, ""LAECHG"": true, ""LCHARG"": true, ""LORBIT"": 10, ""LPLANE"": false, ""LREAL"": ""Auto"", ""NCORE"": 4, ""NELM"": 300, ""NSIM"": 1, ""NSW"": 2, ""PREC"": ""Accurate"", ""SIGMA"": 0.2, ""SYSTEM"": ""Al-40-d-3.41""}",Al-40-d-3.41,450.0,1,1,0.2,Pe,"{""Ti"": 4.0, ""Al"": 3.0}",255.0,,Al
BondOrder-VacuumGB-T1g-Al-Al-41-d-3.41,BondOrder-VacuumGB,BondOrder-VacuumGB/T1g/Al/Al-41-d-3.41,/mnt/e/Onedrive/TiGB-Project/Data/BondOrder-VacuumGB/T1g/Al/Al-41-d-3.41,CONTCAR,64,Ti63 Al1,1755.8344326646197,2.8774697047449447,-482.02446336,-7.53163224,"{""ALGO"": ""Fast"", ""AMIX"": 0.01, ""BMIX"": 0.0001, ""EDIFF"": 1e-05, ""EDIFFG"": -0.01, ""ENCUT"": 450.0, ""GGA"": ""Pe"", ""IBRION"": 2, ""ISIF"": 2, ""ISMEAR"": 1, ""ISPIN"": 1, ""ISTART"": 0, ""KPAR"": 1, ""LAECHG"": true, ""LCHARG"": true, ""LORBIT"": 10, ""LPLANE"": false, ""LREAL"": ""Auto"", ""NCORE"": 4, ""NELM"": 300, ""NSIM"": 1, ""NSW"": 2, ""PREC"": ""Accurate"", ""SIGMA"": 0.2, ""SYSTEM"": ""Al-41-d-3.41""}",Al-41-d-3.41,450.0,1,1,0.2,Pe,"{""Ti"": 4.0, ""Al"": 3.0}",255.0,,Al