job_name,top_level,relpath,path,structure_file,num_atoms,formula,volume,density,energy_eV,energy_per_atom_eV,incar,incar_system,incar_encut,incar_ispin,incar_ismear,incar_sigma,incar_gga,potcar_nelectrons_map,potcar_total_nelectrons,parse_errors,solute
Segregation-1sol-addvac-T1g-Al-Al-45-d-5.32,Segregation-1sol-addvac,Segregation-1sol-addvac/T1g/Al/Al-45-d-5.32,/mnt/e/Onedrive/TiGB-Project/Data/Segregation-1sol-addvac/T1g/Al/Al-45-d-5.32,CONTCAR,64,Ti63 Al1,1755.8344326646197,2.8774697047449447,-482.92742995,-7.54574109296875,"{""ALGO"": ""Fast"", ""AMIX"": 0.01, ""BMIX"": 0.0001, ""EDIFF"": 0.0001, ""EDIFFG"": -0.02, ""ENCUT"": 450.0, ""GGA"": ""Pe"", ""IBRION"": 2, ""ISIF"": 2, ""ISMEAR"": 1, ""ISPIN"": 1, ""ISTART"": 0, ""KPAR"": 4, ""LORBIT"": 10, ""LPLANE"": false, ""LREAL"": ""Auto"", ""NCORE"": 4, ""NELM"": 120, ""NSIM"": 1, ""NSW"": 60, ""PREC"": ""Accurate"", ""SIGMA"": 0.2, ""SYSTEM"": ""Al-45-d-5.32""}",Al-45-d-5.32,450.0,1,1,0.2,Pe,"{""Ti"": 4.0, ""Al"": 3.0}",255.0,,Al
Segregation-1sol-addvac-T1g-Al-Al-47-d-6.48,Segregation-1sol-addvac,Segregation-1sol-addvac/T1g/Al/Al-47-d-6.48,/mnt/e/Onedrive/TiGB-Project/Data/Segregation-1sol-addvac/T1g/Al/Al-47-d-6.48,CONTCAR,64,Ti63 Al1,1755.8344326646197,2.8774697047449447,-482.95618383,-7.54619037234375,"{""ALGO"": ""Fast"", ""AMIX"": 0.01, ""BMIX"": 0.0001, ""EDIFF"": 0.0001, ""EDIFFG"": -0.02, ""ENCUT"": 450.0, ""GGA"": ""Pe"", ""IBRION"": 2, ""ISIF"": 2, ""ISMEAR"": 1, ""ISPIN"": 1, ""ISTART"": 0, ""KPAR"": 4, ""LORBIT"": 10, ""LPLANE"": false, ""LREAL"": ""Auto"", ""NCORE"": 4, ""NELM"": 120, ""NSIM"": 1, ""NSW"": 60, ""PREC"": ""Accurate"", ""SIGMA"": 0.2, ""SYSTEM"": ""Al-47-d-6.48""}",Al-47-d-6.48,450.0,1,1,0.2,Pe,"{""Ti"": 4.0, ""Al"": 3.0}",255.0,,Al
Segregation-1sol-addvac-T1g-Al-Al-49-d-6.96,Segregation-1sol-addvac,Segregation-1sol-addvac/T1g/Al/Al-49-d-6.96,/mnt/e/Onedrive/TiGB-Project/Data/Segregation-1sol-addvac/T1g/Al/Al-49-d-6.96,CONTCAR,64,Ti63 Al1,1755.8344326646197,2.8774697047449447,-482.90332414,-7.5453644396875,"{""ALGO"": ""Fast"", ""AMIX"": 0.01, ""BMIX"": 0.0001, ""EDIFF"": 0.0001, ""EDIFFG"": -0.02, ""ENCUT"": 450.0, ""GGA"": ""Pe"", ""IBRION"": 2, ""ISIF"": 2, ""ISMEAR"": 1, ""ISPIN"": 1, ""ISTART"": 0, ""KPAR"": 4, ""LORBIT"": 10, ""LPLANE"": false, ""LREAL"": ""Auto"", ""NCORE"": 4, ""NELM"": 120, ""NSIM"": 1, ""NSW"": 60, ""PREC"": ""Accurate"", ""SIGMA"": 0.2, ""SYSTEM"": ""Al-49-d-6.96""}",Al-49-d-6.96,450.0,1,1,0.2,Pe,"{""Ti"": 4.0, ""Al"": 3.0}",255.0,,Al
Segregation-1sol-addvac-T1g-V-V-31-d-0.22,Segregation-1sol-addvac,Segregation-1sol-addvac/T1g/V/V-31-d-0.22,/mnt/e/Onedrive/TiGB-Project/Data/Segregation-1sol-addvac/T1g/V/V-31-d-0.22,CONTCAR,64,Ti63 V1,1755.8344326646197,2.900129274038238,-486.67126223,-7.60423847234375,"{""ALGO"": ""Fast"", ""AMIX"": 0.01, ""BMIX"": 0.0001, ""EDIFF"": 0.0001, ""EDIFFG"": -0.02, ""ENCUT"": 450.0, ""GGA"": ""Pe"", ""IBRION"": 2, ""ISIF"": 2, ""ISMEAR"": 1, ""ISPIN"": 1, ""ISTART"": 0, ""KPAR"": 4, ""LORBIT"": 10, ""LPLANE"": false, ""LREAL"": ""Auto"", ""NCORE"": 4, ""NELM"": 120, ""NSIM"": 1, ""NSW"": 60, ""PREC"": ""Accurate"", ""SIGMA"": 0.2, ""SYSTEM"": ""V-31-d-0.22""}",V-31-d-0.22,450.0,1,1,0.2,Pe,"{""Ti"": 4.0, ""V"": 5.0}",257.0,,V
Segregation-1sol-addvac-T1g-V-V-32-d-0.00,Segregation-1sol-addvac,Segregation-1sol-addvac/T1g/V/V-32-d-0.00,/mnt/e/Onedrive/TiGB-Project/Data/Segregation-1sol-addvac/T1g/V/V-32-d-0.00,CONTCAR,64,Ti63 V1,1755.8344326646197,2.900129274038238,-487.05404751,-7.61021949234375,"{""ALGO"": ""Normal"", ""AMIX"": 0.01, ""BMIX"": 0.0001, ""EDIFF"": 0.0001, ""EDIFFG"": -0.02, ""ENCUT"": 450.0, ""GGA"": ""Pe"", ""IBRION"": 2, ""ISIF"": 2, ""ISMEAR"": 1, ""ISPIN"": 1, ""ISTART"": 0, ""KPAR"": 4, ""LORBIT"": 10, ""LPLANE"": false, ""LREAL"": ""Auto"", ""NCORE"": 4, ""NELM"": 120, ""NSIM"": 1, ""NSW"": 60, ""PREC"": ""Accurate"", ""SIGMA"": 0.2, ""SYSTEM"": ""V-32-d-0.00""}",V-32-d-0.00,450.0,1,1,0.2,Pe,"{""Ti"": 4.0, ""V"": 5.0}",257.0,,V
Segregation-1sol-addvac-T1g-V-V-33-d-0.00,Segregation-1sol-addvac,Segregation-1sol-addvac/T1g/V/V-33-d-0.00,/mnt/e/Onedrive/TiGB-Project/Data/Segregation-1sol-addvac/T1g/V/V-33-d-0.00,CONTCAR,64,Ti63 V1,1755.8344326646197,2.900129274038238,-487.01647775,-7.60963246484375,"{""ALGO"": ""Fast"", ""AMIX"": 0.01, ""BMIX"": 0.0001, ""EDIFF"": 0.0001, ""EDIFFG"": -0.02, ""ENCUT"": 450.0, ""GGA"": ""Pe"", ""IBRION"": 2, ""ISIF"": 2, ""ISMEAR"": 1, ""ISPIN"": 1, ""ISTART"": 0, ""KPAR"": 4, ""LORBIT"": 10, ""LPLANE"": false, ""LREAL"": ""Auto"", ""NCORE"": 4, ""NELM"": 120, ""NSIM"": 1, ""NSW"": 60, ""PREC"": ""Accurate"", ""SIGMA"": 0.2, ""SYSTEM"": ""V-33-d-0.00""}",V-33-d-0.00,450.0,1,1,0.2,Pe,"{""Ti"": 4.0, ""V"": 5.0}",257.0,,V
Segregation-1sol-addvac-T1g-V-V-35-d-1.29,Segregation-1sol-addvac,Segregation-1sol-addvac/T1g/V/V-35-d-1.29,/mnt/e/Onedrive/TiGB-Project/Data/Segregation-1sol-addvac/T1g/V/V-35-d-1.29,CONTCAR,64,Ti63 V1,1755.8344326646197,2.900129274038238,-486.92829309,-7.60825457953125,"{""ALGO"": ""Fast"", ""AMIX"": 0.01, ""BMIX"": 0.0001, ""EDIFF"": 0.0001, ""EDIFFG"": -0.02, ""ENCUT"": 450.0, ""GGA"": ""Pe"", ""IBRION"": 2, ""ISIF"": 2, ""ISMEAR"": 1, ""ISPIN"": 1, ""ISTART"": 0, ""KPAR"": 4, ""LORBIT"": 10, ""LPLANE"": false, ""LREAL"": ""Auto"", ""NCORE"": 4, ""NELM"": 120, ""NSIM"": 1, ""NSW"": 60, ""PREC"": ""Accurate"", ""SIGMA"": 0.2, ""SYSTEM"": ""V-35-d-1.29""}",V-35-d-1.29,450.0,1,1,0.2,Pe,"{""Ti"": 4.0, ""V"": 5.0}",257.0,,V
Segregation-1sol-addvac-T1g-V-V-37-d-1.90,Segregation-1sol-addvac,Segregation-1sol-addvac/T1g/V/V-37-d-1.90,/mnt/e/Onedrive/TiGB-Project/Data/Segregation-1sol-addvac/T1g/V/V-37-d-1.90,CONTCAR,64,Ti63 V1,1755.8344326646197,2.900129274038238,-486.92482298,-7.6082003590625,"{""ALGO"": ""Fast"", ""AMIX"": 0.01, ""BMIX"": 0.0001, ""EDIFF"": 0.0001, ""EDIFFG"": -0.02, ""ENCUT"": 450.0, ""GGA"": ""Pe"", ""IBRION"": 2, ""ISIF"": 2, ""ISMEAR"": 1, ""ISPIN"": 1, ""ISTART"": 0, ""KPAR"": 4, ""LORBIT"": 10, ""LPLANE"": false, ""LREAL"": ""Auto"", ""NCORE"": 4, ""NELM"": 120, ""NSIM"": 1, ""NSW"": 60, ""PREC"": ""Accurate"", ""SIGMA"": 0.2, ""SYSTEM"": ""V-37-d-1.90""}",V-37-d-1.90,450.0,1,1,0.2,Pe,"{""Ti"": 4.0, ""V"": 5.0}",257.0,,V
Segregation-1sol-addvac-T1g-V-V-38-d-3.19,Segregation-1sol-addvac,Segregation-1sol-addvac/T1g/V/V-38-d-3.19,/mnt/e/Onedrive/TiGB-Project/Data/Segregation-1sol-addvac/T1g/V/V-38-d-3.19,CONTCAR,64,Ti63 V1,1755.8344326646197,2.900129274038238,-485.89841524,-7.592162738125,"{""ALGO"": ""Fast"", ""AMIX"": 0.01, ""BMIX"": 0.0001, ""EDIFF"": 0.0001, ""EDIFFG"": -0.02, ""ENCUT"": 450.0, ""GGA"": ""Pe"", ""IBRION"": 2, ""ISIF"": 2, ""ISMEAR"": 1, ""ISPIN"": 1, ""ISTART"": 0, ""KPAR"": 4, ""LORBIT"": 10, ""LPLANE"": false, ""LREAL"": ""Auto"", ""NCORE"": 4, ""NELM"": 120, ""NSIM"": 1, ""NSW"": 60, ""PREC"": ""Accurate"", ""SIGMA"": 0.2, ""SYSTEM"": ""V-38-d-3.19""}",V-38-d-3.19,450.0,1,1,0.2,Pe,"{""Ti"": 4.0, ""V"": 5.0}",257.0,,V
Segregation-1sol-addvac-T1g-V-V-39-d-3.19,Segregation-1sol-addvac,Segregation-1sol-addvac/T1g/V/V-39-d-3.19,/mnt/e/Onedrive/TiGB-Project/Data/Segregation-1sol-addvac/T1g/V/V-39-d-3.19,CONTCAR,64,Ti63 V1,1755.8344326646197,2.900129274038238,-485.91677528,-7.59244961375,"{""ALGO"": ""Fast"", ""AMIX"": 0.01, ""BMIX"": 0.0001, ""EDIFF"": 0.0001, ""EDIFFG"": -0.02, ""ENCUT"": 450.0, ""GGA"": ""Pe"", ""IBRION"": 2, ""ISIF"": 2, ""ISMEAR"": 1, ""ISPIN"": 1, ""ISTART"": 0, ""KPAR"": 4, ""LORBIT"": 10, ""LPLANE"": false, ""LREAL"": ""Auto"", ""NCORE"": 4, ""NELM"": 120, ""NSIM"": 1, ""NSW"": 60, ""PREC"": ""Accurate"", ""SIGMA"": 0.2, ""SYSTEM"": ""V-39-d-3.19""}",V-39-d-3.19,450.0,1,1,0.2,Pe,"{""Ti"": 4.0, ""V"": 5.0}",257.0,,V
Segregation-1sol-addvac-T1g-V-V-41-d-3.41,Segregation-1sol-addvac,Segregation-1sol-addvac/T1g/V/V-41-d-3.41,/mnt/e/Onedrive/TiGB-Project/Data/Segregation-1sol-addvac/T1g/V/V-41-d-3.41,CONTCAR,64,Ti63 V1,1755.8344326646197,2.900129274038238,-486.68595273,-7.60446801140625,"{""ALGO"": ""Fast"", ""AMIX"": 0.01, ""BMIX"": 0.0001, ""EDIFF"": 0.0001, ""EDIFFG"": -0.02, ""ENCUT"": 450.0, ""GGA"": ""Pe"", ""IBRION"": 2, ""ISIF"": 2, ""ISMEAR"": 1, ""ISPIN"": 1, ""ISTART"": 0, ""KPAR"": 4, ""LORBIT"": 10, ""LPLANE"": false, ""LREAL"": ""Auto"", ""NCORE"": 4, ""NELM"": 120, ""NSIM"": 1, ""NSW"": 60, ""PREC"": ""Accurate"", ""SIGMA"": 0.2, ""SYSTEM"": ""V-41-d-3.41""}",V-41-d-3.41,450.0,1,1,0.2,Pe,"{""Ti"": 4.0, ""V"": 5.0}",257.0,,V
Segregation-1sol-addvac-T1g-V-V-43-d-4.72,Segregation-1sol-addvac,Segregation-1sol-addvac/T1g/V/V-43-d-4.72,/mnt/e/Onedrive/TiGB-Project/Data/Segregation-1sol-addvac/T1g/V/V-43-d-4.72,CONTCAR,64,Ti63 V1,1755.8344326646197,2.900129274038238,-485.82716654,-7.5910494771875,"{""ALGO"": ""Fast"", ""AMIX"": 0.01, ""BMIX"": 0.0001, ""EDIFF"": 0.0001, ""EDIFFG"": -0.02, ""ENCUT"": 450.0, ""GGA"": ""Pe"", ""IBRION"": 2, ""ISIF"": 2, ""ISMEAR"": 1, ""ISPIN"": 1, ""ISTART"": 0, ""KPAR"": 4, ""LORBIT"": 10, ""LPLANE"": false, ""LREAL"": ""Auto"", ""NCORE"": 4, ""NELM"": 120, ""NSIM"": 1, ""NSW"": 60, ""PREC"": ""Accurate"", ""SIGMA"": 0.2, ""SYSTEM"": ""V-43-d-4.72""}",V-43-d-4.72,450.0,1,1,0.2,Pe,"{""Ti"": 4.0, ""V"": 5.0}",257.0,"vasprun:no element found: line 6843, column 0",V
Segregation-1sol-addvac-T1g-V-V-45-d-5.32,Segregation-1sol-addvac,Segregation-1sol-addvac/T1g/V/V-45-d-5.32,/mnt/e/Onedrive/TiGB-Project/Data/Segregation-1sol-addvac/T1g/V/V-45-d-5.32,CONTCAR,64,Ti63 V1,1755.8344326646197,2.900129274038238,-485.80249798,-7.5906640309375,"{""ALGO"": ""Fast"", ""AMIX"": 0.01, ""BMIX"": 0.0001, ""EDIFF"": 0.0001, ""EDIFFG"": -0.02, ""ENCUT"": 450.0, ""GGA"": ""Pe"", ""IBRION"": 2, ""ISIF"": 2, ""ISMEAR"": 1, ""ISPIN"": 1, ""ISTART"": 0, ""KPAR"": 4, ""LORBIT"": 10, ""LPLANE"": false, ""LREAL"": ""Auto"", ""NCORE"": 4, ""NELM"": 120, ""NSIM"": 1, ""NSW"": 60, ""PREC"": ""Accurate"", ""SIGMA"": 0.2, ""SYSTEM"": ""V-45-d-5.32""}",V-45-d-5.32,450.0,1,1,0.2,Pe,"{""Ti"": 4.0, ""V"": 5.0}",257.0,"vasprun:no element found: line 6194, column 0",V
Segregation-1sol-addvac-T1g-V-V-46-d-6.48,Segregation-1sol-addvac,Segregation-1sol-addvac/T1g/V/V-46-d-6.48,/mnt/e/Onedrive/TiGB-Project/Data/Segregation-1sol-addvac/T1g/V/V-46-d-6.48,CONTCAR,64,Ti63 V1,1755.8344326646197,2.900129274038238,-485.95447538,-7.5930386778125,"{""ALGO"": ""Normal"", ""AMIX"": 0.01, ""BMIX"": 0.0001, ""EDIFF"": 0.0001, ""EDIFFG"": -0.02, ""ENCUT"": 450.0, ""GGA"": ""Pe"", ""IBRION"": 2, ""ISIF"": 2, ""ISMEAR"": 1, ""ISPIN"": 1, ""ISTART"": 0, ""KPAR"": 4, ""LORBIT"": 10, ""LPLANE"": false, ""LREAL"": ""Auto"", ""NCORE"": 4, ""NELM"": 120, ""NSIM"": 1, ""NSW"": 60, ""PREC"": ""Accurate"", ""SIGMA"": 0.2, ""SYSTEM"": ""V-46-d-6.48""}",V-46-d-6.48,450.0,1,1,0.2,Pe,"{""Ti"": 4.0, ""V"": 5.0}",257.0,,V
Segregation-1sol-addvac-T1g-V-V-47-d-6.48,Segregation-1sol-addvac,Segregation-1sol-addvac/T1g/V/V-47-d-6.48,/mnt/e/Onedrive/TiGB-Project/Data/Segregation-1sol-addvac/T1g/V/V-47-d-6.48,CONTCAR,64,Ti63 V1,1755.8344326646197,2.900129274038238,-485.92758534,-7.5926185209375,"{""ALGO"": ""Fast"", ""AMIX"": 0.01, ""BMIX"": 0.0001, ""EDIFF"": 0.0001, ""EDIFFG"": -0.02, ""ENCUT"": 450.0, ""GGA"": ""Pe"", ""IBRION"": 2, ""ISIF"": 2, ""ISMEAR"": 1, ""ISPIN"": 1, ""ISTART"": 0, ""KPAR"": 4, ""LORBIT"": 10, ""LPLANE"": false, ""LREAL"": ""Auto"", ""NCORE"": 4, ""NELM"": 120, ""NSIM"": 1, ""NSW"": 60, ""PREC"": ""Accurate"", ""SIGMA"": 0.2, ""SYSTEM"": ""V-47-d-6.48""}",V-47-d-6.48,450.0,1,1,0.2,Pe,"{""Ti"": 4.0, ""V"": 5.0}",257.0,,V
Segregation-1sol-addvac-T1g-V-V-49-d-6.96,Segregation-1sol-addvac,Segregation-1sol-addvac/T1g/V/V-49-d-6.96,/mnt/e/Onedrive/TiGB-Project/Data/Segregation-1sol-addvac/T1g/V/V-49-d-6.96,CONTCAR,64,Ti63 V1,1755.8344326646197,2.900129274038238,-486.68474301,-7.60444910953125,"{""ALGO"": ""Fast"", ""AMIX"": 0.01, ""BMIX"": 0.0001, ""EDIFF"": 0.0001, ""EDIFFG"": -0.02, ""ENCUT"": 450.0, ""GGA"": ""Pe"", ""IBRION"": 2, ""ISIF"": 2, ""ISMEAR"": 1, ""ISPIN"": 1, ""ISTART"": 0, ""KPAR"": 4, ""LORBIT"": 10, ""LPLANE"": false, ""LREAL"": ""Auto"", ""NCORE"": 4, ""NELM"": 120, ""NSIM"": 1, ""NSW"": 60, ""PREC"": ""Accurate"", ""SIGMA"": 0.2, ""SYSTEM"": ""V-49-d-6.96""}",V-49-d-6.96,450.0,1,1,0.2,Pe,"{""Ti"": 4.0, ""V"": 5.0}",257.0,,V
Segregation-1sol-addvac-T1m-Al-Al-32-d-0.00,Segregation-1sol-addvac,Segregation-1sol-addvac/T1m/Al/Al-32-d-0.00,/mnt/e/Onedrive/TiGB-Project/Data/Segregation-1sol-addvac/T1m/Al/Al-32-d-0.00,CONTCAR,64,Ti63 Al1,1756.1076583245747,2.877022010917432,-482.99094045,-7.54673344453125,"{""ALGO"": ""Fast"", ""AMIX"": 0.01, ""BMIX"": 0.0001, ""EDIFF"": 0.0001, ""EDIFFG"": -0.02, ""ENCUT"": 450.0, ""GGA"": ""Pe"", ""IBRION"": 2, ""ISIF"": 2, ""ISMEAR"": 1, ""ISPIN"": 1, ""ISTART"": 0, ""KPAR"": 4, ""LORBIT"": 10, ""LPLANE"": false, ""LREAL"": ""Auto"", ""NCORE"": 4, ""NELM"": 120, ""NSIM"": 1, ""NSW"": 60, ""PREC"": ""Accurate"", ""SIGMA"": 0.2, ""SYSTEM"": ""Al-32-d-0.00""}",Al-32-d-0.00,450.0,1,1,0.2,Pe,"{""Ti"": 4.0, ""Al"": 3.0}",255.0,,Al
Segregation-1sol-addvac-T1m-Al-Al-34-d-0.00,Segregation-1sol-addvac,Segregation-1sol-addvac/T1m/Al/Al-34-d-0.00,/mnt/e/Onedrive/TiGB-Project/Data/Segregation-1sol-addvac/T1m/Al/Al-34-d-0.00,CONTCAR,64,Ti63 Al1,1756.1076583245747,2.877022010917432,-482.86220889,-7.54472201390625,"{""ALGO"": ""Fast"", ""AMIX"": 0.01, ""BMIX"": 0.0001, ""EDIFF"": 0.0001, ""EDIFFG"": -0.02, ""ENCUT"": 450.0, ""GGA"": ""Pe"", ""IBRION"": 2, ""ISIF"": 2, ""ISMEAR"": 1, ""ISPIN"": 1, ""ISTART"": 0, ""KPAR"": 4, ""LORBIT"": 10, ""LPLANE"": false, ""LREAL"": ""Auto"", ""NCORE"": 4, ""NELM"": 120, ""NSIM"": 1, ""NSW"": 60, ""PREC"": ""Accurate"", ""SIGMA"": 0.2, ""SYSTEM"": ""Al-34-d-0.00""}",Al-34-d-0.00,450.0,1,1,0.2,Pe,"{""Ti"": 4.0, ""Al"": 3.0}",255.0,,Al
Segregation-1sol-addvac-T1m-Al-Al-36-d-1.42,Segregation-1sol-addvac,Segregation-1sol-addvac/T1m/Al/Al-36-d-1.42,/mnt/e/Onedrive/TiGB-Project/Data/Segregation-1sol-addvac/T1m/Al/Al-36-d-1.42,CONTCAR,64,Ti63 Al1,1756.1076583245747,2.877022010917432,-481.84239001,-7.52878734390625,"{""ALGO"": ""Fast"", ""AMIX"": 0.01, ""BMIX"": 0.0001, ""EDIFF"": 0.0001, ""EDIFFG"": -0.02, ""ENCUT"": 450.0, ""GGA"": ""Pe"", ""IBRION"": 2, ""ISIF"": 2, ""ISMEAR"": 1, ""ISPIN"": 1, ""ISTART"": 0, ""KPAR"": 4, ""LORBIT"": 10, ""LPLANE"": false, ""LREAL"": ""Auto"", ""NCORE"": 4, ""NELM"": 120, ""NSIM"": 1, ""NSW"": 60, ""PREC"": ""Accurate"", ""SIGMA"": 0.2, ""SYSTEM"": ""Al-36-d-1.42""}",Al-36-d-1.42,450.0,1,1,0.2,Pe,"{""Ti"": 4.0, ""Al"": 3.0}",255.0,"vasprun:no element found: line 9285, column 0",Al
Segregation-1sol-addvac-T1m-Al-Al-38-d-2.03,Segregation-1sol-addvac,Segregation-1sol-addvac/T1m/Al/Al-38-d-2.03,/mnt/e/Onedrive/TiGB-Project/Data/Segregation-1sol-addvac/T1m/Al/Al-38-d-2.03,CONTCAR,64,Ti63 Al1,1756.1076583245747,2.877022010917432,-482.92014675,-7.54562729296875,"{""ALGO"": ""Fast"", ""AMIX"": 0.01, ""BMIX"": 0.0001, ""EDIFF"": 0.0001, ""EDIFFG"": -0.02, ""ENCUT"": 450.0, ""GGA"": ""Pe"", ""IBRION"": 2, ""ISIF"": 2, ""ISMEAR"": 1, ""ISPIN"": 1, ""ISTART"": 0, ""KPAR"": 4, ""LORBIT"": 10, ""LPLANE"": false, ""LREAL"": ""Auto"", ""NCORE"": 4, ""NELM"": 120, ""NSIM"": 1, ""NSW"": 60, ""PREC"": ""Accurate"", ""SIGMA"": 0.2, ""SYSTEM"": ""Al-38-d-2.03""}",Al-38-d-2.03,450.0,1,1,0.2,Pe,"{""Ti"": 4.0, ""Al"": 3.0}",255.0,,Al
Segregation-1sol-addvac-T1m-Al-Al-40-d-3.20,Segregation-1sol-addvac,Segregation-1sol-addvac/T1m/Al/Al-40-d-3.20,/mnt/e/Onedrive/TiGB-Project/Data/Segregation-1sol-addvac/T1m/Al/Al-40-d-3.20,CONTCAR,64,Ti63 Al1,1756.1076583245747,2.877022010917432,-481.94685955,-7.53041968046875,"{""ALGO"": ""Fast"", ""AMIX"": 0.01, ""BMIX"": 0.0001, ""EDIFF"": 0.0001, ""EDIFFG"": -0.02, ""ENCUT"": 450.0, ""GGA"": ""Pe"", ""IBRION"": 2, ""ISIF"": 2, ""ISMEAR"": 1, ""ISPIN"": 1, ""ISTART"": 0, ""KPAR"": 4, ""LORBIT"": 10, ""LPLANE"": false, ""LREAL"": ""Auto"", ""NCORE"": 4, ""NELM"": 120, ""NSIM"": 1, ""NSW"": 60, ""PREC"": ""Accurate"", ""SIGMA"": 0.2, ""SYSTEM"": ""Al-40-d-3.20""}",Al-40-d-3.20,450.0,1,1,0.2,Pe,"{""Ti"": 4.0, ""Al"": 3.0}",255.0,,Al
Segregation-1sol-addvac-T1m-Al-Al-42-d-3.62,Segregation-1sol-addvac,Segregation-1sol-addvac/T1m/Al/Al-42-d-3.62,/mnt/e/Onedrive/TiGB-Project/Data/Segregation-1sol-addvac/T1m/Al/Al-42-d-3.62,CONTCAR,64,Ti63 Al1,1756.1076583245747,2.877022010917432,-482.90112313,-7.54533004890625,"{""ALGO"": ""Fast"", ""AMIX"": 0.01, ""BMIX"": 0.0001, ""EDIFF"": 0.0001, ""EDIFFG"": -0.02, ""ENCUT"": 450.0, ""GGA"": ""Pe"", ""IBRION"": 2, ""ISIF"": 2, ""ISMEAR"": 1, ""ISPIN"": 1, ""ISTART"": 0, ""KPAR"": 4, ""LORBIT"": 10, ""LPLANE"": false, ""LREAL"": ""Auto"", ""NCORE"": 4, ""NELM"": 120, ""NSIM"": 1, ""NSW"": 60, ""PREC"": ""Accurate"", ""SIGMA"": 0.2, ""SYSTEM"": ""Al-42-d-3.62""}",Al-42-d-3.62,450.0,1,1,0.2,Pe,"{""Ti"": 4.0, ""Al"": 3.0}",255.0,,Al
Segregation-1sol-addvac-T1m-Al-Al-44-d-4.84,Segregation-1sol-addvac,Segregation-1sol-addvac/T1m/Al/Al-44-d-4.84,/mnt/e/Onedrive/TiGB-Project/Data/Segregation-1sol-addvac/T1m/Al/Al-44-d-4.84,CONTCAR,64,Ti63 Al1,1756.1076583245747,2.877022010917432,-482.9599354,-7.546248990625,"{""ALGO"": ""Fast"", ""AMIX"": 0.01, ""BMIX"": 0.0001, ""EDIFF"": 0.0001, ""EDIFFG"": -0.02, ""ENCUT"": 450.0, ""GGA"": ""Pe"", ""IBRION"": 2, ""ISIF"": 2, ""ISMEAR"": 1, ""ISPIN"": 1, ""ISTART"": 0, ""KPAR"": 4, ""LORBIT"": 10, ""LPLANE"": false, ""LREAL"": ""Auto"", ""NCORE"": 4, ""NELM"": 120, ""NSIM"": 1, ""NSW"": 60, ""PREC"": ""Accurate"", ""SIGMA"": 0.2, ""SYSTEM"": ""Al-44-d-4.84""}",Al-44-d-4.84,450.0,1,1,0.2,Pe,"{""Ti"": 4.0, ""Al"": 3.0}",255.0,,Al
Segregation-1sol-addvac-T1m-Al-Al-46-d-5.43,Segregation-1sol-addvac,Segregation-1sol-addvac/T1m/Al/Al-46-d-5.43,/mnt/e/Onedrive/TiGB-Project/Data/Segregation-1sol-addvac/T1m/Al/Al-46-d-5.43,CONTCAR,64,Ti63 Al1,1756.1076583245747,2.877022010917432,-482.95174611,-7.54612103296875,"{""ALGO"": ""Fast"", ""AMIX"": 0.01, ""BMIX"": 0.0001, ""EDIFF"": 0.0001, ""EDIFFG"": -0.02, ""ENCUT"": 450.0, ""GGA"": ""Pe"", ""IBRION"": 2, ""ISIF"": 2, ""ISMEAR"": 1, ""ISPIN"": 1, ""ISTART"": 0, ""KPAR"": 4, ""LORBIT"": 10, ""LPLANE"": false, ""LREAL"": ""Auto"", ""NCORE"": 4, ""NELM"": 120, ""NSIM"": 1, ""NSW"": 60, ""PREC"": ""Accurate"", ""SIGMA"": 0.2, ""SYSTEM"": ""Al-46-d-5.43""}",Al-46-d-5.43,450.0,1,1,0.2,Pe,"{""Ti"": 4.0, ""Al"": 3.0}",255.0,,Al
Segregation-1sol-addvac-T1m-Al-Al-48-d-6.60,Segregation-1sol-addvac,Segregation-1sol-addvac/T1m/Al/Al-48-d-6.60,/mnt/e/Onedrive/TiGB-Project/Data/Segregation-1sol-addvac/T1m/Al/Al-48-d-6.60,CONTCAR,64,Ti63 Al1,1756.1076583245747,2.877022010917432,-482.94300722,-7.5459844878125,"{""ALGO"": ""Fast"", ""AMIX"": 0.01, ""BMIX"": 0.0001, ""EDIFF"": 0.0001, ""EDIFFG"": -0.02, ""ENCUT"": 450.0, ""GGA"": ""Pe"", ""IBRION"": 2, ""ISIF"": 2, ""ISMEAR"": 1, ""ISPIN"": 1, ""ISTART"": 0, ""KPAR"": 4, ""LORBIT"": 10, ""LPLANE"": false, ""LREAL"": ""Auto"", ""NCORE"": 4, ""NELM"": 120, ""NSIM"": 1, ""NSW"": 60, ""PREC"": ""Accurate"", ""SIGMA"": 0.2, ""SYSTEM"": ""Al-48-d-6.60""}",Al-48-d-6.60,450.0,1,1,0.2,Pe,"{""Ti"": 4.0, ""Al"": 3.0}",255.0,,Al
Segregation-1sol-addvac-T1m-V-V-32-d-0.00,Segregation-1sol-addvac,Segregation-1sol-addvac/T1m/V/V-32-d-0.00,/mnt/e/Onedrive/TiGB-Project/Data/Segregation-1sol-addvac/T1m/V/V-32-d-0.00,CONTCAR,64,Ti63 V1,1756.1076583245747,2.8996780547003476,-485.94457585,-7.59288399765625,"{""ALGO"": ""Fast"", ""AMIX"": 0.01, ""BMIX"": 0.0001, ""EDIFF"": 0.0001, ""EDIFFG"": -0.02, ""ENCUT"": 450.0, ""GGA"": ""Pe"", ""IBRION"": 2, ""ISIF"": 2, ""ISMEAR"": 1, ""ISPIN"": 1, ""ISTART"": 0, ""KPAR"": 4, ""LORBIT"": 10, ""LPLANE"": false, ""LREAL"": ""Auto"", ""NCORE"": 4, ""NELM"": 120, ""NSIM"": 1, ""NSW"": 60, ""PREC"": ""Accurate"", ""SIGMA"": 0.2, ""SYSTEM"": ""V-32-d-0.00""}",V-32-d-0.00,450.0,1,1,0.2,Pe,"{""Ti"": 4.0, ""V"": 5.0}",257.0,"vasprun:no element found: line 7063, column 0",V